<?xml version="1.0"?>
<VTKFile type="UnstructuredGrid"  version="0.1"  >
<UnstructuredGrid>
<Piece  NumberOfPoints="14481" NumberOfCells="69582">
<Points>
<DataArray  type="Float64"  NumberOfComponents="3"  format="ascii">3.119057911537869e-09 1.182853865431703e-08 3.721360190656817e-08  5.090626698135146e-10 1.327940195622599e-08 3.86546710520769e-08  2.863117393065242e-09 1.485203676153627e-08 3.817484815778143e-08  2.670048802742578e-09 1.248316745006056e-08 4.040567277446309e-08  -1.203192112298318e-08 6.756830413697821e-09 7.196695339869531e-08  -8.659054774592495e-09 6.091668449960608e-09 7.605873203234773e-08  -9.616468311072706e-09 2.463431071470116e-09 7.202491425484182e-08  -1.473923693385098e-08 5.779348057886453e-09 7.564133493944327e-08  4.435559248583276e-09 -7.434203149007231e-09 4.950806660409591e-08  1.468881762425635e-09 -1.01139984592068e-08 4.857393562988019e-08  1.850467761279333e-09 -5.421492217149405e-09 4.84829421864277e-08  3.903237446758873e-10 -8.350788076158989e-09 4.725246352904565e-08  4.731359507877634e-09 1.755590787067117e-08 2.752166504071047e-08  7.067768353845277e-09 1.742366227338924e-08 2.891329213808027e-08  6.224565646138242e-09 1.859779139341827e-08 2.773109934175114e-08  7.050002169392187e-09 1.639024174017503e-08 2.770535184373064e-08  1.614984084578319e-08 5.246361613296405e-09 3.917008377612719e-08  1.937761782483259e-08 4.538467280085037e-09 4.093574792797966e-08  1.724411230027269e-08 2.538759192404587e-09 3.934027654027772e-08  1.624313218831405e-08 3.875126358915526e-09 4.18958593765681e-08  5.345353492473594e-09 4.558168132677411e-10 4.336997936116338e-08  7.776803435813107e-09 -1.926307466609711e-09 4.291733474078972e-08  4.55274464186441e-09 -2.385538113546026e-09 4.329981391804734e-08  5.269498068226633e-09 -2.184945465085149e-09 4.611998198794577e-08  8.383696025962724e-09 -4.601234958897216e-10 4.480128973426653e-08  5.294452415575096e-10 7.149243311293264e-10 3.434947576343464e-08  -2.053851001745429e-09 8.131141722413353e-10 3.347264618187469e-08  -1.700474163231671e-10 2.540111444766217e-09 3.55961637620511e-08  -1.027369025601876e-09 -4.109892309478732e-10 3.452798363243523e-08  2.277224067722542e-08 -7.472678764509945e-09 4.277590612091821e-08  1.945223610012806e-08 -8.09393519489134e-09 4.465654189197374e-08  1.920864133387425e-08 -8.93882839638166e-09 4.201994269931607e-08  2.021581194479156e-08 -6.916282947556239e-09 4.103817727312593e-08  1.606745941335191e-08 -6.23065250716981e-10 1.032862680056483e-07  2.450349835570908e-08 -7.48450674805123e-10 1.062867597128046e-07  1.823458981525316e-08 1.920130871820136e-09 1.121196309843014e-07  1.934686730684198e-08 -5.275954393244881e-09 1.050541432396198e-07  -3.933174668959512e-07 -9.772659141503868e-08 2.232019056986678e-06  -2.031536663261129e-07 -3.476048239688617e-09 2.229863843607329e-06  -1.99223666939184e-07 -1.607836109365027e-07 2.244974324185348e-06  -2.425703788041078e-07 -5.977981347295038e-08 2.110601624193119e-06  1.034078433834661e-08 -1.601770521441534e-08 4.437698669046337e-08  1.116263958299965e-08 -1.729333179737143e-08 4.847577969889118e-08  1.350994136866809e-08 -1.60054488442585e-08 4.607564111992352e-08  1.215140879805875e-08 -1.42934021075957e-08 4.783733448466652e-08  1.311114101394219e-08 2.33437262255684e-08 5.8890441195014e-08  9.716026744591098e-09 2.121068362949491e-08 5.655167697625167e-08  1.303926581731859e-08 1.964203277813219e-08 5.580134090923062e-08  1.316895705115839e-08 2.00739152438633e-08 6.078334768422863e-08  2.474036668889127e-06 -6.059642175056499e-22 1.410955535758757e-05  1.448375587621626e-06 -5.513536623354703e-07 1.442544418672721e-05  1.556271909442135e-06 2.048009473156475e-07 1.394154368940182e-05  1.744795081664678e-06 -2.093747333766196e-07 1.523879263773792e-05  -1.888820579427459e-07 2.413588718313062e-07 1.664795462983741e-06  -1.113815435486873e-07 1.193708184964318e-07 1.721719901150402e-06  -7.49413419903096e-08 1.661145352705121e-07 1.610056074667702e-06  -1.629415036410711e-07 1.125440281536341e-07 1.630474580625216e-06  -8.150747844304403e-09 -8.262965331178935e-09 3.135206299050294e-08  -1.05724116928676e-08 -8.275102977487735e-09 3.325408037623093e-08  -9.739813533836787e-09 -6.34902662219148e-09 3.241967245678646e-08  -9.654916621608465e-09 -7.781663695102285e-09 3.057844020005661e-08  -1.874619877991429e-08 1.170465636901409e-09 3.461017454511457e-08  -2.003450317439792e-08 -1.013376040762604e-09 3.53950101584636e-08  -2.053509442315437e-08 6.912318553394443e-10 3.732519141635527e-08  -1.763980709748212e-08 1.234550695148343e-09 3.637468949401723e-08  4.298898088488306e-09 -3.496350481629681e-09 2.799076700978164e-08  2.886914424927814e-09 -2.083955876472095e-09 2.964352412489834e-08  5.053276517337528e-09 -2.846993421104099e-09 3.011334316491556e-08  3.277328443613479e-09 -4.208317345914236e-09 3.024225418097488e-08  -5.294832722515973e-10 -2.25822204292064e-08 3.486114093368527e-08  -1.834583027031407e-11 -2.279099058136412e-08 3.602417797255913e-08  5.555058689704544e-10 -2.006482233211377e-08 3.62780800643299e-08  -1.688727186000238e-09 -2.012114658065994e-08 3.513785042942299e-08  -2.096591134043427e-08 -1.140062345089733e-08 8.853288135323407e-08  -1.921676759998013e-08 -8.117927459717449e-09 9.296719483028174e-08  -2.470146498592419e-08 -1.219277434093829e-08 9.23620762601652e-08  -1.750716742488161e-08 -1.356150286535066e-08 9.662490749464728e-08  -3.494911205033749e-08 -2.109355369780644e-08 4.227825235695246e-07  -5.21393313275506e-08 -1.135011891121285e-08 4.619020507386112e-07  -6.11507265888527e-08 -8.159841175393689e-09 4.325975067001166e-07  -2.886729797093595e-08 -3.312630493836385e-09 4.455764656122487e-07  -1.410055226671843e-08 1.261867188766652e-09 7.662650439481273e-08  -1.434209844407651e-08 1.247912651768797e-09 7.134521985537545e-08  -1.518480224086606e-08 4.928267419445343e-09 7.193401132983083e-08  6.464531942427802e-09 2.103562370736609e-08 1.628190715921577e-07  2.470974646688656e-09 1.501106961355496e-08 1.516006271348575e-07  1.477359159010401e-08 1.391960655871983e-08 1.582972449342231e-07  9.014265616148796e-09 2.123656108325996e-08 1.537948087891729e-07  -4.26729402024625e-09 -2.769564026309709e-10 3.374444817116497e-08  -5.222354862026261e-09 -9.482343464426805e-10 3.692844613244465e-08  -2.640140368635107e-09 -9.542081150485135e-10 3.589573904381897e-08  -4.96634023634426e-09 -2.549846780566801e-09 3.591151942961258e-08  1.734034592439307e-08 -2.725845676130416e-08 9.065638396237193e-08  1.255515829723873e-08 -2.049434830949635e-08 9.281963330753294e-08  1.767519673181388e-08 -2.008553988585027e-08 9.017798934158597e-08  1.622131997966662e-08 -2.38306882352881e-08 9.79253708468949e-08  1.104999578429819e-08 5.65564086262926e-09 1.320148634520668e-07  2.019390953857162e-08 8.728587083623243e-10 1.33018632442975e-07  7.987016367414958e-09 -1.932775969710053e-09 1.296047674391174e-07  1.777207962925971e-08 -2.20923330871832e-09 1.264273673207768e-07  -1.633343074597453e-08 -1.432145210726446e-08 6.743202348406991e-08  -1.690127350718489e-08 -8.82351844134866e-09 6.900416193663716e-08  -1.994174770183475e-08 -1.274007961883216e-08 7.110055022208978e-08  -1.408695140399126e-08 -1.438822177510491e-08 7.051484830902008e-08  7.159237472692421e-09 -1.646045204085958e-08 2.999847919581605e-08  9.124611883799523e-09 -1.725753293588881e-08 3.200650336260575e-08  8.804832155619852e-09 -1.762613127831127e-08 2.968574874670149e-08  8.41244448703415e-09 -1.510827010866102e-08 3.062754698457593e-08  -2.624788246503429e-11 1.06221112946072e-08 3.752719524111518e-08  1.608647034944102e-09 1.22432839983787e-08 3.590000696249605e-08  5.024772670607174e-07 9.593448536540395e-07 1.680026285551246e-05  1.35194382566126e-06 9.998487854060665e-07 1.560369933228072e-05  -9.426099214583775e-08 7.469228106025304e-07 1.590306951698425e-05  7.896956753571906e-07 3.104532230860066e-07 1.554389234749651e-05  1.015078042335966e-08 -5.959354037428267e-09 3.579993389644951e-08  1.133818687209046e-08 -7.443927987963637e-09 3.325267737487196e-08  9.053416240340689e-09 -6.395233233307145e-09 3.334414173928245e-08  1.062741944450645e-08 -4.882477824093657e-09 3.323941021398416e-08  -1.543967432593912e-07 5.675055328537952e-08 8.49607140809499e-07  -8.041683091106881e-08 3.270680057864298e-08 8.480644628526592e-07  -1.167376704976379e-07 1.181599196326026e-08 8.857241072733262e-07  -9.184454405739212e-08 8.484786509871575e-08 8.547235170103832e-07  4.388131545225479e-09 -6.532578158424286e-09 1.913934649817033e-07  -7.882107475384784e-09 -1.267504429037669e-08 1.968451746137072e-07  -3.391026989784531e-09 3.481825286646809e-10 1.969240720376579e-07  8.815412035317372e-09 -3.78478696364644e-09 2.019266926427324e-07  6.817368067587541e-09 -1.223102901101538e-08 5.551736773956496e-08  7.206459211718923e-09 -7.571019376490826e-09 5.692470636250284e-08  7.868791990468011e-09 -9.325159257335017e-09 5.269522373984431e-08  4.085123623592467e-09 -1.015870371462923e-08 5.625924699332336e-08  -2.091860586071279e-08 -7.603234700017428e-09 7.394341344591801e-08  -2.412988680120274e-08 -5.363469573440722e-09 7.750567347883183e-08  -1.731485916898752e-08 -8.438180116733904e-09 7.755444390252141e-08  -2.416031185210018e-08 -9.418895246204226e-09 7.940005478525401e-08  1.870138987324058e-08 3.798988826494388e-09 5.484578502623751e-08  2.071093720217322e-08 -1.0308592645512e-09 5.418301946507037e-08  2.22123506090742e-08 2.449169665165144e-09 5.435145887179532e-08  1.828010458742228e-08 2.06876368642263e-09 5.743358666358851e-08  9.687113292012217e-09 -1.200502621211789e-08 3.418555752819417e-08  1.226541990120715e-08 -1.097845422520418e-08 3.286824853877516e-08  1.134701280240644e-08 -1.274036269850981e-08 3.193532483095664e-08  1.271723260238358e-08 -1.261996119687435e-08 3.354449852488651e-08  7.851123432012879e-09 1.104507345113117e-09 3.989202306778517e-08  6.808158941297846e-09 8.40114568637526e-10 3.667742742712661e-08  6.515437447406553e-09 -1.3334428
[...]
<PointData  Scalars="f_76"> 
<DataArray  type="Float64"  Name="f_76"  format="ascii">8.5697323606003594e-42  9.9389039571113061e-42  4.8736660728265235e-42  -2.2452496151272395e-42  1.5697058158390947e-50  2.9716423317323970e-51  -3.7015036918429037e-50  3.2120386523731829e-51  -2.6124438674281383e-45  1.1051669312157131e-45  1.9854279744060191e-45  2.4752801988115615e-44  -3.2788613671891577e-38  3.5313140356571181e-38  -2.2726596053034930e-38  -1.8805657897734026e-37  -3.8056824733660686e-43  -9.6206686100595117e-45  1.0054542961772413e-42  -3.9714604805507486e-43  5.4989751033967702e-44  5.9067102857224055e-44  -7.2685342194087619e-44  3.4454504737818030e-45  -2.1839760636181472e-44  -2.3708052479187724e-40  7.6625531660672945e-40  2.1760419808987345e-40  -1.3502318272125340e-40  -2.1238039023709254e-44  -8.0447513494933260e-45  -4.1093090463786135e-44  1.4766800784002601e-43  -9.5308828905561541e-56  7.0212776905224512e-57  1.4786734321611977e-56  -1.4781902317587546e-58  2.7874589840475687e-101  -2.7178865080263019e-100  -8.1643493386934905e-100  1.3964148346839298e-99  9.9398967952353086e-44  -6.4700861367862634e-45  -2.3960293474166294e-44  -1.1286464305607324e-44  1.4515892645814127e-48  -7.2619588578199756e-48  -1.9579221505838832e-48  9.1769448941694936e-51  9.0533874240943829e-127  -4.7440521176023811e-127  -1.5748469072387714e-126  -1.4817891511030075e-128  1.3432563310869019e-95  1.1615039081816365e-96  -4.9016124216965592e-95  1.0541881035495470e-95  -7.2661475477554185e-39  3.4907263293924287e-39  3.8947367794333227e-39  -3.1978469167216661e-38  -8.0366833143823765e-41  -4.9677893210033367e-41  4.1840461897767285e-42  1.9253196537993822e-41  -7.9711596472810496e-38  -8.1911147382930573e-40  3.2756165345368295e-39  2.0650014557740425e-38  1.3105147053573916e-40  -5.1910524771016450e-42  2.0286922687542359e-41  -7.9673664249024560e-41  -2.2027886562796528e-53  2.2753083623700655e-54  3.7916049803337259e-54  1.2689267529246302e-54  2.5079960592773928e-76  -9.0804142169471310e-77  -3.9538851493740318e-76  -3.6593215579380747e-76  1.9502199609549693e-51  6.9370131963833663e-51  9.5696504117260771e-52  5.4470470387036097e-62  -3.7994461851291278e-61  -4.0048061332882305e-62  -1.0886180726561577e-61  9.9378352231145289e-41  1.6550511340279240e-41  -1.1788341998489132e-40  -5.2660451199359534e-41  2.4935854343384641e-54  1.3580602793931515e-54  -6.7658249752214026e-54  3.6950462508960830e-55  -3.3382574399477867e-60  -2.1286541353499850e-59  -1.7361931167125535e-58  4.3295364664134124e-59  2.9569238227551068e-50  -2.6429054894577248e-50  3.0818560007651792e-51  6.3513797279226998e-51  -7.9774901155938608e-39  6.0487348937012847e-40  1.3151515463985236e-38  -7.2154129059999303e-39  1.1243061899803141e-41  -9.7012971094408813e-41  1.7423581890372475e-128  -8.0173932580596068e-128  -3.8872706833447761e-128  -2.6937975103555694e-128  4.7553704969591866e-41  -4.6529976694407068e-40  2.2378520508136255e-40  -3.1349684375456234e-40  3.7176710544290352e-88  4.3557265129416791e-86  -1.6806136826574641e-86  -3.4965574711038545e-86  -3.1256680084124863e-65  2.2759923599029804e-64  6.4883228035192969e-65  8.5845585149040216e-67  -9.4940629708343917e-48  -3.5196765557483093e-47  3.3879382265239356e-46  -1.0477533735053860e-46  3.1971909375857855e-51  -3.2910309531079496e-52  -1.1222817965261367e-51  -1.2073900497232255e-53  1.7383697994451269e-46  4.7929470071864785e-47  5.3420191792198288e-47  9.1222227164823968e-48  1.4479925938056947e-40  -9.8757001253028651e-41  -5.6791345181492262e-41  5.0327477297911221e-40  1.0053257346890716e-42  1.2756821312068064e-41  -1.0275880400931636e-41  -1.1733348764493387e-41  -8.4698426514596921e-40  -1.0338269661353269e-38  4.5528004063295892e-38  5.4795166541555776e-40  -3.5188120055818761e-58  -1.1543945140184800e-57  1.4853080328929333e-56  -1.9644164762086038e-57  1.1500926713425641e-44  -2.2523256615458554e-43  -8.7679049497224735e-44  -7.8346412964352451e-44  5.8698462824429570e-74  -1.8611951552564608e-74  8.7127898386106132e-74  -1.6467784632178233e-74  -2.1596103638764529e-37  -1.7969320811481737e-37  -8.4446260595248827e-38  6.3931392849280800e-37  5.2027767179210667e-37  2.0623711761243967e-37  -1.4676575694151140e-37  8.1481928244972611e-37  2.6475081931212156e-42  5.5419285157073580e-97  3.5065627257265421e-97  1.9344059076761633e-97  -2.9901982355299167e-96  -4.9478456724254209e-42  7.6788251994288820e-43  1.5041402109787653e-42  -5.5663457670292245e-43  2.9480254126070619e-89  -3.4071023426053082e-89  1.0257903161780839e-89  -3.9428251085621291e-88  -5.5875929363282353e-39  6.6236702884336758e-39  2.3726351464406658e-38  -1.8405315163285554e-39  -2.2979391286881203e-93  -6.5450993085800721e-94  3.2794582952625426e-93  1.0119262221507643e-92  6.9742998442386581e-84  1.5120202152042130e-85  -1.1143954358058357e-84  -5.7113238576034415e-85  -4.6765422757290774e-68  1.1901192185949091e-68  -8.4914090602566792e-69  2.2661923989943012e-67  -2.6355215829043621e-45  -3.2907383802714188e-44  4.8491768199553301e-44  7.3070743066777855e-45  9.1464838756617941e-40  -1.1573078087173266e-39  1.0347677483443746e-40  -3.5193695475265116e-39  3.1542528437493074e-115  -9.0409619834187962e-116  2.4297233618646718e-115  1.9121008429591827e-115  -6.5039528041385234e-47  -5.0415014942032530e-46  1.2708514862294414e-46  4.6742995913681435e-47  -4.3682884067764749e-54  -1.1525243789274149e-54  8.2095154842307301e-54  -3.5896983587128669e-54  -1.3214407761480938e-46  3.9362456487705274e-39  -3.1920559381472360e-104  2.2753185501141324e-104  1.5687071695643080e-103  3.8717148599885897e-104  -2.4774068822243350e-71  1.8609131679408252e-71  5.3682137263215952e-71  -8.0973002534880798e-71  9.6743287116488751e-41  3.2297444999509857e-43  5.8026521649568662e-43  8.7518264748135928e-43  -2.4299944716639862e-42  -1.5856520043449223e-74  6.6736185670561998e-75  3.6854481961898696e-74  2.6022713594325059e-75  -2.0738236813688548e-72  1.1306139880756926e-72  4.9989222701480577e-74  -2.2129697639341859e-72  3.0421483632528999e-51  -1.2560519152087375e-50  5.2015186473564843e-51  -1.0554706588441217e-52  4.9738317642235771e-39  1.7961251694717201e-38  -7.0234880768880969e-38  3.3945125715778382e-38  8.3720409164911489e-42  -8.4127297155486094e-41  1.0407286574379295e-41  2.0634808912564788e-41  -3.7831909740037764e-47  -6.9748649802004991e-47  2.0741410119136982e-46  1.6603727945496219e-46  9.5081440555652921e-96  1.0175231808894534e-54  -3.9599872962156711e-40  1.3790489716680485e-41  8.5966542583738866e-41  -1.4071285675830926e-41  4.5173907776777097e-45  1.1265183469823992e-44  3.7419336293075287e-44  -1.2393247632805730e-44  7.5932125891499138e-65  -3.8638333398370638e-65  8.0769703248402901e-66  4.7947024421697953e-65  8.2101649241170959e-84  3.1625744080204516e-83  3.9983459683417073e-84  -5.5371118879429990e-84  -6.2472503368723855e-48  1.1257566248285578e-48  2.5598984569978825e-48  -1.2731319158551403e-48  2.3357545131794463e-60  -5.2849387913128522e-60  -6.5226512823759041e-61  9.0869717185028256e-61  6.4965275479257105e-46  -2.1012749504086355e-45  3.4129291502333304e-44  -1.6479817969529056e-45  -5.6346595809426659e-49  9.1502499103870626e-50  2.1817554138812084e-49  -4.7787263083100773e-49  1.8999177393612240e-37  1.9289507238636107e-37  -4.8239643102770316e-38  5.4806792990872664e-39  4.5783087785655428e-45  3.5962766061599807e-44  -5.6555859948014985e-45  -1.7966235172275301e-44  1.7869371561416780e-40  -5.8497207375435344e-40  -1.4048913748099485e-39  -4.0518841654820460e-40  2.9761953954805269e-39  4.0699950139048376e-39  1.2858483256754718e-39  -3.6901840509561186e-40  -3.2587852168230259e-39  -7.5179972967468179e-40  -5.2077160497536265e-39  9.8286058493432233e-39  5.4168528630097201e-42  -1.1100951587418109e-42  -1.9516737058656145e-44  -2.5157482918773900e-43  -3.3433819042835841e-77  -1.9696346029871647e-77  6.0435006929238631e-78  -1.9416461530903150e-77  -9.1584216683462571e-57  1.2030168379536020e-57  3.3392767312408151e-57  1.7844416661419412e-57  -2.7784794408671324e-46  2.4745817191045975e-46  -5.8776359790343646e-46  -1.0513210100208023e-54  3.4098561813809267e-124  1.0262999723063954e-123  -1.3958985809943801e-124  3.4017984982286231e-124  2.0658188678317492e-45  -3.8992746963109741e-46  3.8721771043218377e-45  -1.3405857147712817e-45  -2.1758971357154295e-39  -3.3569638286619447e-75  1.2229291083662917e-75  -2.4027256623632698e-75  3.1164464015164733e-75  2.7856891295848169e-51  8.7960178058782058e-40  -2.9418004080596175e-39  -2.2098519009411583e-39  2.6192652608139042e-40  -2.5827757391719549e-47  -8.3579357717305052e-49  1.6621164408348050e-46  2.3165642026867087e-46  4.0305833280385256e-42  -7.7687377017762081e-43  1.1163890301006415e-41  -1.7461693347174390e-42  2.8185865152543969e-44  4.8221512327433035e-47  6.0850703516492270e-47  -2.6392065661409722e-46  -6.5383431975572365e-47  -4.6519796991828454e-46  3.3663946895622264e-56  -9.0156852450143838e-56  -2.7413116059146189e-55  2.5542849400623993e-56  3.3355632791019303e-36  -4.0567015995836397e-37  1.0638866146632518e-37  -2.4840135586174881e-37  7.9432287655434092e-53  2.5322234047712266e-53  7.6594747611490897e-54  -1.2208426578460266e-53  2.4338982239399547e-42  -8.3834775867027182e-44  1.2197715078988806e-42  1.4315366021426165e-75  9.9638671512576627e-76  4.4759509972304536e-76  -1.0478547324378294e-84  6.0347898501855617e-50  -4.3816728980950539e-51  -3.9473087625463779e-51  -9.0072665732048807e-51  -2.4573647304068106e-49  4.7489434958293757e-50  -2.6805475282094977e-50  -4.2379559258294030e-49  1.1232005873202229e-43  7.5130850753422048e-44  -3.2226306881985079e-43  3.5617705831250611e-45  9.1947288173482387e-42  9.2991286428283380e-45  6.0779105834111939e-46  -6.6041589070061901e-45  -1.7210029005572985e-44  9.7638607861681192e-59  1.1093309141898531e-57  -3.1301725220473615e-58  -4.3976310724869089e-96  1.6550663479474354e-95  -2.6319096857262212e-95  -1.6863001909650769e-96  1.4650524640489757e-97  2.8199432895149224e-97  -9.0398110059714109e-97  -2.7249345575601890e-97  3.5765217125463855e-82  4.4703387103066644e-81  -8.5098844528790435e-83  -2.6082443354907838e-81  1.2468008004909034e-69  -5.5188992296085791e-68  9.4198127010300953e-69  7.3640228938412949e-69  3.7446615716503560e-43  2.0768455823985727e-43  -1.7640173147110782e-43  4.3645430717023706e-43  3.8067381902432171e-48  -1.4555114192757745e-47  1.7123395523583194e-47  -7.0399723008200544e-48  1.5766406849247802e-44  -5.7528120898945072e-45  2.8764788133762314e-43  -9.5358221812326905e-44  5.7160214029117271e-66  -5.1483111305778209e-67  1.3879971983198204e-67  -1.4585093243587683e-66  -3.3450645849719859e-45  -6.9930480381501767e-46  -2.4099456337485651e-45  1.4262594651505779e-44  2.7802284578395397e-39  1.5844468312342396e-40  -4.6101181047113430e-39  7.3549669986023375e-40  2.1896524621593650e-61  -8.3698001132950228e-61  1.1350899073272432e-61  7.0125413829498547e-62  9.0188170647143210e-92  2.2675795705228008e-91  -7.5840093435746219e-93  2.8147329273708055e-92  -2.8613221503722797e-95  6.8886966092759103e-95  -1.5950124063634476e-94  -2.1105357741479721e-94  2.6736286004260779e-95  1.2853070298346087e-40  1.2090132220281879e-40  -2.2761916924586545e-41  -2.9939123832345147e-40  -9.1750735654131247e-46  -9.9277269086254612e-46  -9.3723991388638620e-97  1.5653851754166959e-68  -2.8472486969569749e-69  -7.9885873093183607e-70  -2.7001515924530027e-69  -1.1776181278363638e-80  1.1699653500281886e-79  -1.0064304234653881e-81  -2.1037001429007504e-80  -1.6558908034710853e-49  -3.0336327634179852e-49  4.4345452949735342e-50  1.8111142091774606e-44  -1.5832949051425684e-57  5.2340485411353923e-58  2.0031887260245643e-58  1.0426556954820790e-57  -4.5725075140467901e-59  -8.1087667126521918e-59  1.3389079786684092e-58  1.5084995537719867e-58  1.5229280527323703e-42  -2.5005935026956359e-43  2.0411896924398918e-44  -7.9605674717874159e-44  9.4000029115444678e-51  4.7333314400840818e-49  -8.4403332865089863e-116  2.7150899806813976e-116  -4.6432891488737941e-116  -2.2172673054396262e-116  -3.7743075645412672e-40  4.7965389854466787e-41  2.5079509655013979e-41  -1.6668181099723638e-40  -2.8544067515665427e-40  1.4431444806701377e-54  2.8357813436852440e-56  6.6955170618582755e-57  6.6761747834113673e-57  -4.0901313911674824e-57  3.8949248346047843e-44  -4.3503576563647993e-43  -5.8635070873796515e-44  -9.2724223774757066e-43  -2.4990959300445136e-53  -5.5958265997915476e-54  7.4598059132306881e-53  -9.3500285650539992e-54  4.9864459999959858e-40  4.2083311833654899e-40  1.5979118677783091e-39  1.2626537058501545e-39  8.2894364320357140e-61  8.7419288427402710e-61  -7.5403346566299179e-60  -2.2786302120038854e-60  2.4833984271572062e-98  2.4887265836733023e-99  -6.7923372996674150e-98  -1.8372579762521530e-98  2.0285226250251362e-60  -9.1213162532280673e-60  3.5616518966556521e-60  1.0832302531521837e-46  6.3184023618033950e-64  -1.0736305103415861e-64  1.4323034946568327e-63  -2.0428082851944740e-63  -4.6019190636227907e-44  -6.3559460797924148e-108  -1.1013963371920365e-107  7.4292342534043986e-107  4.0053531816449334e-107  2.0678994558335151e-71  -8.7941117695341709e-71  8.6123829881825057e-72  -2.6240008265588852e-72  1.4343596270241109e-42  5.4000074861856353e-44  4.3972704282831019e-50  -3.5948966061223540e-51  -1.1136717044583887e-50  -1.1682239013860030e-51  -2.4899751717799806e-48  -6.2603562156078960e-51  3.7706088730866802e-63  6.3611112736188266e-63  -5.8960558120737028e-63  -1.8491412441069425e-62  3.3224536576586710e-44  -2.2814668255452069e-43  7.3980044454579039e-44  -1.3790569223343006e-44  -9.8866972073768270e-73  1.1031332910336392e-73  7.3323603141701239e-72  -2.8008063325623571e-48  4.4861660817960049e-74  2.6619445122610704e-63  -5.2755714635361419e-63  2.2901904439150073e-63  -3.1649794406778173e-69  -1.9263104057884648e-69  1.6807730606223828e-69  2.2259611332268866e-51  -3.1970260643386411e-50  3.6301409533991786e-51  -2.4193519980018423e-50  5.9422474944484672e-81  -2.4871415936368842e-81  -2.0894633709667827e-80  -6.2130272974706204e-52  2.1061239671912849e-43  1.1921212550612705e-42  -1.3316081700497609e-43  -9.2183256228975733e-44  -4.2444269063849890e-37  3.3541883009426693e-38  -1.1190791076260741e-37  9.9639753730169034e-38  -3.1158941484367671e-44  4.4563853409153511e-44  -2.8273792582376296e-44  -2.2453110867524109e-44  1.5479093004816411e-43  -2.4859223930700820e-44  2.5503339329930515e-74  3.0868161113595367e-68  6.5200987203126253e-68  -1.4858854848011874e-67  -2.0100452193328299e-67  -4.2688395893038615e-84  -2.7840871125400781e-45  1.2083850464565791e-44  -2.6943841899725614e-45  -5.2196495328645233e-53  -1.8640059817295241e-52  -2.7469532957332070e-52  5.5216511803493383e-52  -1.7715784293229883e-121  2.5531254183690266e-121  7.3813628030028848e-121  -1.2695740276162375e-120  -2.5078941283196140e-128  1.8068701220938743e-128  7.9906608861251854e-41  3.6480447368657075e-42  -7.6586460302261455e-41  5.4894645311681213e-41  -3.7943686415207446e-53  -6.0877766615428275e-52  8.1207145464899690e-52  -5.2804937815124072e-52  -9.3497858216727514e-46  -8.5601997448581341e-46  5.4258389463253740e-45  3.5792824717067808e-45  -9.6162036162683089e-87  3.2231016394860770e-89  2.8262564034440389e-87  9.1177579609563056e-88  -7.5517775856104141e-44  2.2623595941173804e-38  -5.4414419766145486e-39  9.4017645769621847e-39  6.4955723951861930e-39  -1.0567773972495506e-41  3.8224659505533743e-42  -8.6880626325316955e-42  -3.2026563293005449e-41  1.9568361942425690e-37  5.8233943838818061e-38  -4.7892344193900151e-37  2.0218361588044250e-38  1.7727749133496780e-40  2.7657940966720815e-38  1.1982272555055202e-37  -6.6257215705030576e-37  -2.9621474155921014e-54  4.1788008716872298e-90  1.1797456463256521e-90  -1.7347901589544932e-89  7.9988276806512639e-91  -2.5457500381413829e-37  1.4597374385960329e-40  4.6229006033848755e-40  -2.5393910149623137e-40  4.7854913497303772e-43  4.8551498486919162e-42  1.5120276918356834e-38  -5.0874144144062348e-39  -9.0516483419704325e-39  4.4978729964825016e-40  9.3398938736521478e-40  3.0169701046682237e-59  -8.9490925886447296e-61  -8.0257811334352764e-61  -3.8409254904534083e-77  1.0640258112285499e-78  8.8376731197976302e-79  6.6497533395387122e-78  2.9358378701665370e-125  4.1678486989301005e-125  -3.2303592006883317e-125  3.7965025875402792e-125  -1.5406769713442984e-44  -8.5894577928460159e-44  6.2984412796459021e-50  1.1279021256167152e-36  -1.5127744267924004e-37  -3.8761167366136412e-37  -8.6669029475860591e-38  -6.8540722533671934e-105  -3.1359511905405999e-105  1.2440554069800723e-41  -1.2578928045469365e-42  -8.1337645911358771e-43  2.7388097339190755e-43  -1.9480240852814154e-42  -1.5602782779298718e-39  -2.7583747199669714e-42  6.0635646557774989e-43  -2.7621860406114249e-56  2.0815013777556275e-55  -2.1023253605985053e-57  1.0544685289776803e-55  -4.7088466523950411e-43  4.3225966158718368e-43  2.3612555936338432e-42  7.4081894656313143e-43  1.7424378815679005e-43  3.2766961139182006e-43  -4.1627571664598155e-44  1.5426398116758027e-43  -1.7513620593809340e-54  3.6802748635491311e-54  -2.8096969358873516e-55  -7.6605261504999260e-46  8.5237963808651752e-45  -5.6063818998882523e-44  3.1823098045397773e-41  -1.5110229768423660e-42  -8.2255627981497632e-42  1.0973319852869254e-42  1.3906033048415974e-47  -3.8030019844891327e-47  -6.2350671143014562e-47  2.0869807808211209e-46  -2.5748977784149987e-43  -1.1984774283103310e-44  -2.4210533492481817e-46  -3.5376521810359378e-46  2.3307957927674007e-47  3.1701014766853922e-46  -8.6538736763801979e-96  -1.2848526795601533e-90  3.6742570141897844e-90  6.7104592950189401e-91  -1.6786746074049884e-91  1.4547152265058557e-37  -1.9208047024095510e-77  -1.7852199152050147e-76  3.3227394318597355e-75  -1.9566082208417046e-47  5.7533690095683030e-48  6.4642813548074793e-75  -4.2108350551819147e-74  9.3711253043488973e-75  7.0223767744535017e-75  7.8061433119764273e-39  1.0635529300302106e-38  -5.8082420968317686e-38  -1.0193743919059022e-38  -3.0779052045249466e-47  -1.6958336459035835e-46  2.1543977618556572e-46  -5.0505485873989648e-47  1.1307343570940359e-56  3.1486025865930180e-51  4.2525776420654842e-46  1.5322532973343300e-88  -8.6477125418570830e-60  1.5360044149015393e-73  -8.2835564402978207e-74  -3.3513480079680393e-72  4.8331325276214025e-73  6.5698607020561479e-47  6.0996159144540403e-42  -2.5230789292113700e-41  -2.1987919516139334e-40  -2.2514769975186287e-41  -3.9263512408330593e-45  -1.9558908905879415e-130  3.1834529644199766e-129  -2.9987771505513228e-129  3.3513756031403097e-129  -6.5135758272801337e-39  -9.7346418447605740e-40  2.2532858110264726e-38  -1.0453971133331809e-38  -3.1494843877462064e-48  -4.4500152820590084e-47  -9.6226432302037100e-47  4.0599252002517797e-47  -3.6370908631359751e-77  -1.6886407659944741e-78  9.1891769783243577e-77  -1.4118302869664674e-42  -1.0488014110256015e-40  7.7821807844209280e-42  -8.1955144072800050e-42  6.0076946066848125e-104  1.7924577115695184e-53  -8.2522881398785005e-40  1.2945640694517420e-40  3.6392568751123335e-39  -1.7924461624066659e-40  -9.1343857024887143e-77  -9.5045687165825314e-38  1.3201137935708003e-36  5.5757215894030731e-42  1.5655719545778383e-43  -8.1392617756617554e-44  1.0742584204348318e-43  -1.7347317439832789e-84  2.4113189923529551e-85  6.8611045750017488e-84  -3.9923688267161175e-84  -4.6356020258145390e-56  1.7167160604844292e-55  2.9525048284439210e-57  3.1860455201049293e-56  -1.2331793534303215e-38  -7.9661571246644785e-39  3.6191422854249677e-39  -6.3751161835540377e-40  2.2934332051251426e-43  9.8310682491184840e-46  3.7463141726309643e-45  -3.8619822767067228e-46  4.6285443299103740e-46  4.9570069176367752e-93  -1.4494993839297332e-94  -1.8298612491223055e-92  3.5567689667405891e-94  6.7657126485434696e-93  6.3904786151642664e-92  9.3636624012140372e-93  -1.8042377230877563e-92  3.3687966242210530e-38  1.6680573795876752e-36  -8.1670320662702762e-38  -1.0154624