<?xml version="1.0"?>
<VTKFile type="UnstructuredGrid"  version="0.1"  >
<UnstructuredGrid>
<Piece  NumberOfPoints="13456" NumberOfCells="71453">
<Points>
<DataArray  type="Float64"  NumberOfComponents="3"  format="ascii">1.867849695924084e-08 -7.149388179671796e-09 1.456075807828873e-08  1.70300833820434e-08 -6.618562302375084e-09 1.391729370622858e-08  1.764285092958484e-08 -6.375158137449395e-09 1.506951702938033e-08  1.702164468327337e-08 -7.886802733607021e-09 1.427892111227661e-08  5.438828837681659e-09 -5.81685051430128e-09 5.175102824587866e-09  5.468831582477577e-09 -4.193557640100675e-09 5.452867430312106e-09  4.033454337236684e-09 -4.836287720518855e-09 5.764501184502158e-09  5.402286954127065e-09 -5.394634638563004e-09 6.506060704751431e-09  1.082749249836631e-08 2.868532968621848e-09 1.830923320319409e-08  9.761916799688494e-09 1.654225836737673e-09 1.864538870256781e-08  9.07482226079419e-09 3.000772771023598e-09 1.794360135918751e-08  9.834027216235978e-09 2.916522464596742e-09 1.938361239892597e-08  1.133745814778225e-08 -1.647610520563904e-08 4.593882973678098e-09  1.022588966308689e-08 -1.561093852158992e-08 5.147278525511966e-09  1.111662288289408e-08 -1.539068193944054e-08 5.781670820899488e-09  1.172796379062032e-08 -1.496440286641145e-08 4.159143064456014e-09  1.270859659468921e-08 7.507241213828823e-09 8.350141210521235e-09  1.138906454251172e-08 6.997921937767661e-09 8.4887537871488e-09  1.275582280231258e-08 6.722651819467402e-09 9.623326050760785e-09  1.140935672509222e-08 7.710375171326012e-09 9.701280202073985e-09  1.200077198735379e-08 -1.599942098038378e-08 1.205766347630349e-08  1.111358893697679e-08 -1.48107964380459e-08 1.277283511041055e-08  1.01317623564761e-08 -1.576168208050776e-08 1.20155044216627e-08  1.167183989718185e-08 -1.483784143227391e-08 1.171292292155831e-08  1.27684315231285e-08 -4.123425725412477e-09 1.397914200974972e-08  1.412726806325078e-08 -4.623648206121709e-09 1.450845074789569e-08  1.263931542796061e-08 -5.701176022106432e-09 1.426422396477869e-08  1.317737225382733e-08 -4.625252055244583e-09 1.314563960114395e-08  1.462064331336544e-08 -4.675738269968992e-09 1.898233281477101e-08  1.295331788110207e-08 -5.016614585835788e-09 1.839634012122774e-08  1.333397974046136e-08 -4.92421736853389e-09 2.002365712810025e-08  1.383898525724946e-08 -5.883247595954679e-09 1.950455080976423e-08  1.098207531812031e-08 3.707725522968924e-09 1.472351611344417e-08  1.191094912290831e-08 3.07946366895948e-09 1.362459822844788e-08  1.06050258011495e-08 3.657807932429917e-09 1.311630128713508e-08  1.018919269094093e-08 2.620111975127025e-09 1.42808337087918e-08  1.122022069268131e-09 2.624766919702116e-09 5.266885278692213e-09  -6.884674470327992e-10 2.348124208170958e-09 5.574881692450017e-09  3.042605400613931e-10 2.644304618460837e-09 6.760252559320454e-09  1.091510846700222e-09 1.91651042116632e-09 6.057708667056721e-09  1.824250629666815e-08 4.913438041632021e-10 2.198792071420884e-08  1.825052789581285e-08 2.076894287031533e-09 2.099881654361715e-08  1.750028616268014e-08 7.665027511157674e-10 2.075077891617569e-08  1.744560957292237e-08 2.357322437532354e-09 2.184446923015302e-08  7.402426647809242e-09 -8.891752130525709e-09 1.226314217265257e-08  6.342132147687304e-09 -9.77964984263288e-09 1.146787541157106e-08  7.668921539835819e-09 -1.030849108425244e-08 1.16987815682753e-08  6.492473104914785e-09 -1.055533367458787e-08 1.265821978622448e-08  3.231364330955329e-09 -1.644429248798623e-08 2.794898790434936e-08  3.93945818479162e-09 -1.500401820199923e-08 2.623415734025314e-08  5.542066181011826e-09 -1.588064291756685e-08 2.708851036607792e-08  3.927178170621335e-09 -1.686953607225876e-08 2.650760741011556e-08  8.144855561997744e-09 -1.246665888870527e-08 2.165642601520379e-09  8.690714517073282e-09 -1.067489928978602e-08 1.685945551111125e-09  7.387537656635657e-09 -1.150366017419434e-08 2.531079796488579e-09  8.227949542489527e-09 -1.149028635770694e-08 3.131852496341747e-09  7.83920294399489e-10 -1.998463081900761e-08 2.0795216378191e-09  -2.416565792792641e-10 -1.83335954446436e-08 2.433321629246257e-09  1.103562229953994e-09 -1.887923771263246e-08 2.411883353699402e-09  -1.467258943978812e-10 -1.906531932987637e-08 1.13800971047457e-09  8.330848302521993e-09 -8.531483504839494e-09 9.203762993965734e-09  8.687348435041811e-09 -1.044092883785525e-08 9.298462056002402e-09  7.690134103276377e-09 -9.62036159804357e-09 9.629135443142033e-09  8.445496463465932e-09 -9.102638523938037e-09 8.107092298943856e-09  9.617838028097172e-09 -1.298902532121718e-08 0  8.980698035704387e-09 -1.191084562540494e-08 1.296133376318187e-09  8.834059955540226e-09 -1.312084849616706e-08 1.182326185857274e-09  1.060334047146485e-08 -1.23979925504214e-08 9.838017434128218e-10  7.161216445626174e-09 8.148404295839114e-10 9.164484861678874e-09  7.461552367147219e-09 1.998189726714923e-09 8.183647661353294e-09  8.092439424911292e-09 1.079955610052508e-09 7.493168696990699e-09  6.493222970932877e-09 5.873604458916342e-10 8.238786880950524e-09  1.815518912265243e-08 8.389821685871679e-09 9.020812561391568e-09  1.685452482529542e-08 7.954632264127244e-09 1.024762541215697e-08  1.72045716033351e-08 7.800795933874481e-09 8.521889267669592e-09  1.680974265463536e-08 8.995778333767214e-09 9.967328297612005e-09  7.61183021479403e-09 9.299622507760613e-09 2.469204590777098e-08  8.121318896160498e-09 1.074992991535648e-08 2.373535485744319e-08  6.206567862307038e-09 1.012842630964757e-08 2.509458950396175e-08  6.241069130229754e-09 1.077126022840582e-08 2.373478779837126e-08  1.670542531595825e-08 -6.592637923793164e-09 1.217991969130914e-08  1.736858561452183e-08 -5.793668210931441e-09 1.05698403168168e-08  1.632965211607495e-08 -5.380746813988665e-09 1.15285109104542e-08  1.784583751983784e-08 -6.484245789218434e-09 1.200751672702345e-08  1.772144533776231e-08 -5.356408454718334e-09 1.205363592551134e-08  1.454234519719653e-08 1.161282867200867e-09 1.384416024366321e-08  1.55458992650794e-08 1.480798937337409e-09 1.242571806501371e-08  1.529481136508985e-08 1.954573240110663e-09 1.349718973542111e-08  1.370802903378146e-08 1.382557115040419e-09 1.317464596764369e-08  1.468942756867056e-08 4.158036370320576e-10 1.253359453827065e-08  1.465419983178069e-08 2.489616725368794e-09 1.271026609526322e-08  5.599014034628177e-09 1.661003588398708e-08 5.243475140068752e-09  5.467780785720531e-09 1.731429583488609e-08 7.03147252464212e-09  4.446311168629291e-09 1.693364224228792e-08 6.286198685880927e-09  6.123541350182751e-09 1.783926154322111e-08 6.121265318312256e-09  2.964015453990126e-09 -2.99070315652834e-09 1.891717500909061e-08  4.138940179410024e-09 -3.355489961075447e-09 2.025562382798002e-08  2.325174037629217e-09 -2.842786239354004e-09 2.009575496509088e-08  3.713551918462749e-09 -2.12874855772362e-09 2.025528272259209e-08  1.286228333649242e-08 -1.531540620981988e-08 1.913449727427999e-08  1.25160928937484e-08 -1.348913795459254e-08 1.988071430176723e-08  1.158759505565938e-08 -1.455272321008587e-08 1.977189587909686e-08  1.238635933444419e-08 -1.390519365400378e-08 1.846060875539624e-08  5.203059876810711e-09 7.125643946543077e-10 1.791536636489984e-08  4.701272155376926e-09 2.236620133366274e-10 1.943098900818097e-08  3.909463316481801e-09 3.181160889789297e-10 1.871154535467161e-08  5.214343483673364e-09 -6.440152870830616e-10 1.779479846134994e-08  -7.544010009243175e-10 9.4005555708547e-09 1.369157669886425e-08  3.191263031113722e-10 8.974694700165183e-09 1.27067735714038e-08  -9.026739733040801e-12 1.027545834012336e-08 1.382195052528576e-08  -4.44994478504301e-10 1.07397523548566e-08 1.276764911759419e-08  1.67881231481356e-08 6.277279552252408e-09 4.742227704228832e-09  1.690902897199028e-08 6.967117133798475e-09 3.129269648772841e-09  1.762879354568837e-08 5.784595835096844e-09 3.636003218864414e-09  1.586979951558106e-08 5.890729509137168e-09 4.152055166117494e-09  6.907938260032059e-09 1.160271495994078e-08 2.469675548205638e-08  2.9947890226662e-09 1.211017850624909e-08 6.60084568490703e-09  1.882743015671298e-09 1.148346706146174e-08 5.770909363257469e-09  2.163647009727777e-09 1.067891601381943e-08 7.108686471979372e-09  3.60099033921118e-09 1.110069794109101e-08 6.516003745649479e-09  5.994447787779027e-09 -1.437932417983394e-09 9.718248955199573e-09  6.83616337298493e-09 -1.096418299991165e-10 1.063052802986982e-08  5.53859902566811e-09 -2.510141755066028e-10 1.098772905141041e-08  5.347030903331144e-09 -6.096690588957095e-10 9.494714182838899e-09  1.345062697514057e-08 -5.312497302213964e-09 2.636582759778429e-09  1.443915432591566e-08 -6.705114848906187e-09 1.865739775490664e-09  1.498100111408037e-08 -5.732891877334933e-09 2.666668043200262e-09  1.444036412389806e-08 -5.674107080588236e-09 1.151019104643681e-09  3.582516603980419e-09 1.762827971004902e-08 1.328034477487709e-08  3.009268149624054e-09 1.623245572012784e-08 1.382635498143849e-08  2.433396999753646e-09 1.773237096402963e-08 1.462540571994546e-08  3.797823697328911e-09 1.749609994907959e-08 1.45118337985151e-08  -6.142870630125969e-10 6.271662639031613e-09 1.025229017895144e-08  -2.754118536226316e-10 6.808911007192011e-09 1.137559978476054e-08  -1.8608883652866e-09 7.559480232009293e-09 1.073723198560631e-08  -1.165953393392091e-09 5.931049420088885e-09 1.107032749241698e-08  1.75913109244613e-08 5.198391623904046e-10 5.204836785032937e-09  1.697247696168296e-08 -5.59193067248858e-10 4.193651222334488e-09  1.63295692802532e-08 6.104363729932205e-10 4.609664261988747e-09  1.705793193162757e-08 -5.415756569612966e-10 5.952684001883748e-09  1.967619397157715e-09 1.703720917066533e-08 1.383517289433701e-08  9.467914379346511e-09 -9.281650533511639e-09 8.788755834483122e-09  1.50469269802673e-09 1.016886581446816e-08 2.02256256801355e-08  2.303842918175855e-10 1.067664586219911e-08 1.956924784167643e-08  3.065362059036324e-10 1.154546804485565e-08 2.096074958847295e-08  1.317356634417172e-09 1.104147323549952e-08 1.9502794
[...]
<PointData  Scalars="f_75"> 
<DataArray  type="Float64"  Name="f_75"  format="ascii">8.7861916871724934e-30  -2.7400644981914113e-29  -5.2056900703191699e-31  5.6018758034289947e-30  7.6214692223502129e-25  -3.8274533184064155e-23  1.1970385305264966e-23  7.8491789119972462e-24  -8.7792950262918916e-33  -1.1843438825335239e-31  3.0288142014721915e-32  1.0831399023658843e-32  -3.1547691318249974e-24  5.9714268378413736e-23  -4.3213525555356695e-23  2.3178586256295588e-22  3.6868710405108773e-25  -3.1300294367374824e-25  -1.2861572277281974e-26  1.6351185149670505e-26  5.6566145741064705e-30  -2.2859221467972945e-28  4.8431390814226547e-28  -5.4741556155618982e-29  -9.3978499430908696e-29  -9.9193747833092389e-29  -1.1738490198625854e-28  5.3787364661875358e-28  2.3658511992188939e-32  -1.3774020720045650e-31  3.5287389482687921e-33  4.0759676153755446e-32  3.2220023680681101e-30  -1.3477789624084345e-28  4.8966757945880330e-29  -9.3708474154677250e-30  1.9970012998300920e-23  1.0709239951849026e-23  -5.3540243240705509e-24  -2.1978757725745647e-24  1.6167111033895403e-34  3.4224523101104201e-35  -5.0827303238887133e-34  2.1088491839070926e-35  1.1490182523501457e-27  -6.7296195628756965e-28  1.3675187805775718e-27  -3.9196911197588390e-28  3.1443728344454161e-38  1.3606238863496673e-36  -4.8772238363518843e-37  -7.2414546980315296e-37  -4.8376566712574395e-21  -1.0973750766027548e-21  -2.0863727503424089e-22  1.5310610396866168e-21  -3.0669441946884589e-21  4.7364644522718827e-21  1.0016190432252622e-21  7.7199348586649400e-21  -6.8605484332034362e-26  -5.6714217469140463e-26  -3.5545174634289899e-27  5.1640117384849463e-25  1.9627734725825001e-04  3.1896684180423873e-20  3.6482004174976552e-20  1.7162098096523646e-04  4.4566794306346777e-26  -5.1797650399721811e-28  -7.6197324958748990e-25  -2.2640750582300458e-25  -1.3740003738975232e-26  -1.7405815784085999e-26  3.7551325597164178e-26  -5.2012846234334877e-26  -1.3256758876673727e-35  1.2030031558503078e-35  1.2967410348515712e-36  -5.0913989272783551e-35  -1.0751299368908314e-27  1.0352704959059774e-26  -3.3453781390404753e-28  -4.9035345343720119e-28  5.1228506408260123e-28  4.9710314752683929e-29  -2.4341376619939598e-29  -5.8461022819720001e-29  -3.3965694931952785e-28  -1.7697473512943362e-28  5.6300357248163879e-28  2.3697596784983479e-23  -2.1546781690239092e-24  1.6067411777269342e-24  3.1565437352396361e-24  -2.8902404389044525e-32  -3.5418125579928139e-33  1.5347539357121291e-32  -4.1352503031009733e-33  -3.5698865499666212e-33  -1.3300063860037754e-34  -4.2670585416966987e-33  1.5874572148024448e-32  7.9581023135685078e-32  -1.0034249653833884e-32  -9.6779950757777011e-33  -7.5852336388012079e-32  4.6963505195945610e-30  1.9357219852381774e-28  3.2486116434566819e-29  -2.5815487565179543e-28  -1.3237313621225948e-22  4.4903572080660379e-22  9.0960955731019100e-22  -2.6643028036134982e-22  6.2307414148776942e-36  4.0426607470932610e-24  -6.3926826760587166e-24  -5.3438295045305209e-24  1.9655396975435186e-23  -7.4996397638194315e-26  -9.5320895696084398e-27  3.3950113004225336e-27  4.4724875871275115e-26  5.5436925170762189e-21  2.0554060525854089e-21  -2.1401630240551713e-21  -5.9019184810476564e-22  1.5280784642844558e-28  -1.1263738426742506e-29  -2.2098483251515049e-29  -1.2284865040257544e-29  2.2156077254401408e-26  -7.1977043994052911e-27  1.2724631261389639e-26  -9.5564969807898394e-27  5.5862478253365474e-23  -3.9214001403953826e-23  -4.2930974256675203e-24  -4.8842213392254817e-25  3.0820532364897838e-29  -2.9031360245450169e-26  -1.6483042705338031e-32  2.7716821958825188e-32  -2.8137236042068468e-33  1.8744886924838551e-32  -1.0521431972785598e-28  -5.4486379102234195e-29  1.2681485168152576e-29  2.6456234535634603e-31  -5.9856615033980265e-32  2.1321438532061299e-31  1.2244368229604397e-31  -5.1123744214209165e-23  2.8260678969451575e-23  -1.8385781522247021e-22  -9.3808258439491274e-23  4.0856569393676082e-35  2.9718996614021910e-34  -5.4394275757468270e-35  -1.8146967004310797e-34  1.1733229889627219e-32  6.7442305586820841e-33  -6.1077308964617520e-33  -4.3858692259386680e-33  1.3146920300482847e-04  -2.4804050267252702e-20  2.0236036500879344e-20  1.1893222906709005e-20  8.5975049744580777e-29  -5.4855156727920544e-27  -6.1150647205324678e-26  3.1177611945883398e-26  1.2324551354240373e-26  -1.4344894030875359e-31  2.9350700602323444e-31  -3.8433283848855454e-32  5.2068515293857057e-32  1.0826528080003831e-32  -4.4935552195394118e-32  -9.2038418485699802e-21  1.8586065015721763e-21  3.8899712424931448e-22  2.4289624200157246e-22  3.2336839119010008e-23  -3.0089257796363793e-24  -4.3089453541190843e-22  -7.9008122464197757e-27  -1.2148103538504970e-26  -1.0275841876321766e-26  2.9465750349602392e-26  4.3036707819234967e-32  -1.1075655660723830e-31  3.1673237676461626e-33  1.6362440083761149e-32  -2.8298037753399771e-24  -3.1654935446076615e-24  2.4787258178483076e-25  -1.9078398487363496e-24  -1.1587158235575804e-21  -1.0517934515263011e-21  1.3077113991417701e-21  4.2604482214551352e-22  -1.2840929532225894e-30  3.4817451912256798e-31  2.2279903072571759e-31  1.4896435506039681e-30  -3.6111327277689588e-35  -4.3452282273686095e-35  4.4763476707776096e-34  -3.7523594917124177e-35  -1.4400827514550481e-24  -8.3565060083620828e-25  -5.2747982698303314e-23  1.2017011574029654e-23  -1.6717369861601239e-29  -1.1546709652024589e-29  3.1880944780122959e-29  -2.8287893293064595e-30  -7.2976904255559637e-24  3.9389938766881462e-23  -4.4919223243658103e-31  2.2489310252330507e-30  4.7591452316168955e-32  -1.6510635152229329e-30  1.6680573795876752e-36  -8.1670320662702762e-38  5.3468132449631621e-37  -3.5514369418611781e-36  1.2396627045192308e-24  5.0000116018459865e-24  -1.8480539724075879e-23  -5.1788105618686769e-23  -3.7826740589843579e-36  -7.0624894376501007e-34  9.3428854441064060e-34  8.0366851157269403e-35  1.6836320538863462e-23  -1.7410718437354953e-22  8.5923319365356177e-23  -3.3820838008517023e-22  3.1835310169571095e-24  -1.5975028695058173e-23  -2.3171075607360474e-23  1.2269207868154736e-23  1.6394166439517006e-21  -2.5854117640675199e-20  -2.4814162345747070e-21  5.1531477856096077e-22  1.4025019615503617e-23  3.2115713678397908e-21  -3.8093411271874399e-21  1.8964157638667545e-20  5.0025764492122018e-21  8.0835592137440503e-27  -4.0358766644716816e-27  -2.4615632780710157e-26  -9.0467632965241323e-27  4.7640947834895585e-28  -2.2900633282813702e-27  -1.2633827025523782e-26  3.1471678299815328e-26  -9.8376980053448541e-27  -2.1757691431216892e-34  1.5061337629076772e-35  5.9017551851429658e-35  -1.2209312316228216e-34  1.3592340080881006e-04  1.1443870968527903e-04  -7.2691254638770921e-21  2.8613735115260434e-20  -5.6073708279058637e-29  2.4340182575228908e-28  1.4006364229963911e-27  -2.7532853576717477e-27  -1.8889436764636932e-33  3.6949298676152244e-34  9.4223620505057584e-35  1.1532344995683022e-34  1.9993447194845288e-23  -2.0351778265362630e-21  6.4862858065854365e-22  -9.9356559673485800e-22  -7.0222762412955814e-21  7.4463151041232073e-21  1.3804973467358915e-22  4.0117629551655691e-23  1.4732342269386591e-22  -3.0402641347641200e-23  8.5781609794675082e-30  5.4035273658237588e-30  -2.1291803732019852e-29  3.6783437097113350e-30  -2.0493948267941112e-30  -7.8733775976668880e-29  1.8169170646831871e-29  1.2013267159090060e-29  2.3077867243017143e-28  -6.7259874454501370e-31  -1.0725980889659472e-30  1.5178537810413127e-30  -9.8529866228274641e-32  -1.6142103257446712e-21  2.3877854016217890e-21  -2.1467099394395702e-20  6.3397389620975251e-21  4.9820172550516938e-33  -2.9700024364416144e-32  2.9859496302521397e-32  -8.6764999498880937e-33  -5.0119042457736210e-32  1.0420117110406023e-32  3.7005275228059321e-33  -1.4470386394788537e-32  -9.9644768490289620e-24  3.5497001393296100e-24  -9.2420159944931939e-24  3.8752428196019681e-25  3.1474662136796139e-25  5.6542151993399238e-29  1.4281531139997799e-29  1.9362237308921418e-29  -7.3368407051261477e-30  2.4443329620559203e-25  3.5763128336756902e-26  -4.1296346564731593e-26  3.2116908669396010e-29  1.3361347518341597e-29  -1.4448981110796258e-29  3.0148690112970946e-29  1.1268942039006328e-21  -3.0834176701090257e-30  1.0958304635135873e-29  3.4075347744195193e-29  -1.6431546381317223e-28  -2.0340549090961442e-28  2.7572636779167532e-27  -6.3728454438125266e-28  -1.1750055632551055e-33  -8.2728403136106217e-33  -1.7652418676105806e-33  1.1507036514082487e-33  2.4677275450186031e-37  -4.8708288662128054e-36  1.5507624555023541e-36  -2.9671378891140791e-36  4.6140904890030540e-23  -2.4745324605917355e-24  -2.6202158101266058e-23  -5.1665897983095982e-21  1.8711470865393079e-20  9.1503142261327750e-21  4.3921909997949951e-20  -1.7895657206835604e-35  -1.4047436825537287e-36  3.3237944373321628e-34  -1.8415955393874137e-34  1.7266736697807517e-31  1.2146382453791490e-30  -8.7921057226321310e-31  -8.6235034019551423e-31  1.1175398375871742e-23  1.3855037582932313e-24  -5.2492751501208414e-24  2.1863900335806876e-24  -1.0465652584657402e-23  4.3436171536896703e-24  -2.0535089967915219e-23  -2.8058776466466186e-23  7.0582574938490662e-22  -1.7348401277757371e-20  -2.0545056220574538e-20  5.1664218899023726e-21  2.9472039318334812e-21  -5.6281786225790085e-39  -3.2581084746360046e-37  1.7293631315934340e-36  2.5359449545437450e-37  1.0324970050032652e-29  1.0480133138379996e-29  2.8755630390970952e-30  -9.3324454448036409e-30  -6.7763398177290202e-29  1.8352883155399040e-28  -3.0437700810024572e-29  2.8729046700546782e-28  7.7770138542195016e-21  -4.8304065240046955e-31  2.8783192017850467e-29  3.9684325658388772e-32  -9.8944399416583238e-31  1.5867749471406395e-29  -3.5685015437054055e-29  2.3110593417700232e-30  -9.3680154299930281e-31  -6.4859139194587365e-27  -1.1171278389988956e-27  8.6093565765254340e-27  3.2298964056367816e-27  -3.3146006162594591e-23  5.3151849990629798e-31  8.9106660347507343e-31  1.7480784895667689e-31  2.4393371512912741e-31  -1.2510703118494409e-32  4.8568568778211108e-31  -1.2882149444881508e-31  -8.9526915267844089e-29  2.3046533286804973e-29  3.5566503162138102e-29  3.4125678161752854e-28  -8.5754352569846739e-30  -4.5966485515187089e-23  -1.1403275252057977e-23  -1.2370848590567416e-22  8.6162535165219894e-22  -1.6022173721568431e-23  -4.5330398440975588e-23  -1.5391568959043634e-22  -1.5776136834030745e-30  4.6109845817698105e-31  -2.1512852743587705e-31  4.9161585685791274e-30  6.9064348803001535e-35  -9.2459107606506101e-22  -1.0876157552756031e-20  4.3974235867682146e-21  6.8783764397814426e-21  1.0578622856834476e-32  2.1591072416779643e-32  -1.8263431526704093e-32  -1.6967442577189261e-33  4.7484093799727677e-27  4.6914805775859261e-23  -8.6478824016870944e-23  -4.2380766748418394e-22  1.0716198114973410e-36  4.1488819450155913e-35  1.8207905858528410e-35  -3.1654196732779624e-34  1.5202992428123235e-26  -6.4323964982204099e-27  9.2061871983186247e-28  -1.4064194145815893e-25  -8.8954781338673260e-23  -8.4743307323066298e-22  1.4125543163768410e-22  2.2288322046933720e-22  -2.7198760712256378e-20  1.7641282628868381e-21  3.8974790596576149e-21  -3.0742536900884095e-21  -3.2724769561147118e-23  1.0364844757841169e-22  -1.2146747195513741e-22  8.0208442202643685e-23  4.8520773022353890e-35  -4.1955132752418485e-35  2.5904301371756036e-35  -1.4146085049374022e-35  -4.6649017546113344e-24  -3.6427722347755641e-24  6.4662168537168223e-23  -1.0265661234210875e-23  -1.1508372116329123e-27  1.3166465965682536e-27  -3.7440122960565880e-27  2.9009898031787829e-28  5.3368201026514554e-21  3.4740151321876894e-34  1.5863830479372843e-32  1.0851085916722458e-36  -1.0362999297576815e-36  1.2958303452009757e-36  -1.6802140821144748e-36  -5.4289396750776178e-38  2.6413623437185417e-38  -2.9679389980048368e-37  2.1444251384446387e-37  -6.4559108617506567e-24  4.1185301074558991e-36  -3.4675713024732947e-35  -5.0040817181261822e-35  2.5774945672937777e-35  5.7759749601885577e-31  -8.1054585858657043e-26  2.0327524522568155e-27  -2.6540508183904224e-22  -1.2079093951709836e-21  1.1217413515572798e-21  2.9100354645819847e-21  4.1971248129239283e-22  -1.5026306947643860e-21  6.5463817423351443e-23  -2.1843452330152677e-22  1.2922098119824596e-04  2.0216103698152441e-21  -2.9076753362499942e-20  -4.7743700460909450e-20  1.1915373948426212e-04  -7.8299432548857360e-22  -6.0783776896467117e-21  4.9358638309645561e-22  9.7761266858095835e-23  3.9182171371478462e-31  1.3299720551932115e-31  3.6990218984279790e-31  -3.0398118957999480e-30  3.3787644304435472e-23  -1.7984440584705494e-23  -2.4595264944182237e-23  9.3865652564561686e-23  -7.1439819033147341e-30  9.4068772660049301e-28  8.1576184275958018e-34  -1.8830630356018792e-32  4.1978489952160194e-33  6.8522832363564166e-34  2.3550976593403041e-23  5.8675493679547388e-24  1.2258111331938199e-23  -6.9931615126015745e-24  2.7655663919723500e-24  -1.9311185485160340e-25  -7.5676637204715420e-25  -6.5539584985149616e-26  5.8063904071607089e-29  2.0132253866597065e-30  -7.7207462747740973e-36  3.2389943254437606e-36  7.0870360812001564e-37  2.4861180828223317e-35  4.0229672429941348e-23  -9.1630154285562518e-31  5.3902989924470080e-31  4.3910921380908844e-30  -1.6303947147322992e-31  -1.6148657085047836e-31  5.8373404859768696e-31  -3.5526358559041948e-32  -6.5376196004549254e-32  1.3173216403646751e-04  1.8521461356071294e-20  -2.2033205036365735e-20  7.3854814102950370e-21  -3.8007294629931552e-27  5.3228331208492961e-27  -5.8595522609530940e-30  -7.2547604670589874e-33  1.3313054801383862e-30  2.8033916622267815e-30  -2.2160463053146558e-25  1.1522953606642208e-24  -5.5017720469474568e-25  -1.3489949521642186e-21  -5.5798315562552470e-25  -3.7884333154009715e-32  5.7770803875162784e-32  4.4973236447031007e-32  -3.9323012959502181e-32  2.7770952966616132e-22  -1.0419129969171061e-31  2.1080246169083495e-31  -4.8546010522005052e-32  7.8389709497267581e-32  -6.7326880835310142e-22  2.4077493172829371e-21  -1.0447794923710074e-20  -6.3757626512358105e-21  -6.0539111519906591e-21  1.4031073755430783e-29  -3.1661194199971862e-29  -2.7012096681986099e-30  -4.6552557037532643e-30  7.9689483286242710e-24  4.5908483929034090e-24  -6.9152581197315291e-23  -5.7698832655123204e-23  1.1162964457952266e-23  -5.1183081613564253e-21  4.1894490993549028e-33  4.9768752969641162e-31  -1.1310724985517794e-30  -6.1981407608881126e-31  5.0211594629197597e-31  -3.6996802583834478e-21  2.4673759808609587e-22  9.7859410051804349e-31  2.0782884533980257e-33  -1.9371128885801833e-32  -1.4360161831412119e-31  4.0610429215287332e-25  -2.8927475876112862e-25  3.0983175989683284e-26  -1.0821050500922198e-25  8.3367440367330894e-32  4.4658026412704435e-32  -1.2450068485793228e-31  1.0348781854689442e-32  3.7324472757191183e-23  2.7866089619386120e-23  -3.2643778671097001e-30  4.6749643424041464e-30  -5.3710629273993205e-31  -1.8618516895521657e-29  -7.7947495595592902e-30  4.2483747243299297e-35  -8.2582370580092288e-35  2.5542038980119962e-33  -4.0166748298266809e-34  -1.4747998670581245e-22  1.0688980311605224e-22  -4.1126197680190872e-22  -5.5083109301053320e-22  7.4096543455086047e-26  -7.3927366746338657e-29  -1.1805036093332372e-28  3.5381451183100691e-29  2.2192610665710582e-29  1.2854363867890705e-04  1.1062714662128243e-04  -9.7019548354399157e-22  3.0678504606869405e-20  4.6752039639895161e-36  7.2403263175650100e-37  -3.4865108641942622e-36  2.4695787766344678e-36  -4.7521048509598573e-25  2.5989533615689066e-24  8.3265286511566180e-25  9.8441630119775249e-25  -5.6714331020439133e-31  -3.5499207329064481e-32  4.0480387100704808e-31  -1.7102057593868191e-30  -3.3216568580404620e-35  -1.3077746868422692e-36  -5.2775233408133613e-35  1.6207739544569696e-35  1.3805001695724619e-24  1.2011407046171032e-24  3.9789205067445852e-25  -2.8528171995003109e-25  8.2170553482806384e-24  -1.1506810899838836e-23  -9.3944043451665188e-23  1.1252037006407377e-23  -2.1084209915857352e-28  2.8303512024831274e-38  3.4031871144033673e-38  1.8602015430215641e-37  -1.6503091716234373e-37  -3.3070606458347615e-28  -3.6407333946044534e-27  1.0650897159477138e-26  7.2803276079268719e-29  5.2372732241111349e-23  -1.4124484537348285e-23  -3.6939244200493837e-23  7.1849008587763785e-24  1.4856887046604532e-04  -1.6053365166091088e-21  -1.1542425998012784e-20  3.8090578700219732e-21  -1.6291985618495324e-26  3.0759519023463060e-25  -3.9207160865371250e-25  1.2102658367739777e-04  -8.8961749387306495e-21  2.0618659644573645e-20  -1.1831174999886374e-21  8.2318627005189798e-30  1.9992975230082947e-32  2.4704660519639295e-32  -1.6196700354381337e-32  -1.2752793198177310e-27  -9.8153973701196213e-29  2.0845171899285305e-31  -1.9217362814166697e-30  -1.5463987442607589e-31  -2.3071005697794106e-29  1.1648867903125167e-23  7.8204664236449380e-31  3.2403910394357167e-31  2.4647184721927129e-30  5.6656692006356518e-24  2.2785153191528995e-33  3.8580049056894994e-33  1.3139354622561402e-33  -1.2752320699491762e-32  7.3430925993775541e-32  -1.9610888283289849e-27  -4.5635265986337513e-27  1.8396772719095734e-28  8.6330427139835360e-28  -2.7743218858892925e-34  -1.6757362956759965e-33  -8.2761399938261025e-34  2.3547912964055691e-34  -4.7203258659016998e-21  1.7893508891553816e-22  -2.8074632849425361e-21  1.5717808116306362e-21  -8.6523734298285724e-26  -7.9162091853100613e-26  3.6479861753388507e-24  -3.2786720900121112e-25  4.9758236350069596e-23  -8.3011048950404200e-26  -1.6402409434566926e-25  2.1998651287420164e-26  5.5345855917700210e-25  -6.1052090497503202e-25  -1.2733043106964982e-24  4.8181471365672339e-24  1.0486026227109096e-23  1.4341087896842169e-04  -3.5361125644960021e-21  8.0200335914085592e-21  1.3456195076077211e-04  -1.0800355500976936e-28  7.7224284795314462e-28  2.3424627352003031e-28  -1.1711922439315905e-27  -1.9280244337359390e-31  -8.8215166842066222e-32  -1.2837429350193807e-31  -1.3807804073242248e-28  -4.2035478060157154e-28  4.4803110316135255e-29  -7.5930117420585712e-29  8.6333956920665715e-28  1.0954094760084047e-04  -9.1448807396291891e-30  -2.3098335933284502e-30  3.0004516310528607e-30  -2.2700056292144298e-29  2.2960894282915202e-32  1.8175624831073432e-20  -4.5964996473678861e-29  2.0752955753879726e-27  -3.9586132229468437e-28  1.4263574952731553e-27  -2.4712414405455601e-22  3.8912392039930913e-22  2.9311523589184288e-21  -1.6925279828719213e-22  1.3092700701874524e-31  4.1331834268577185e-31  7.3970947615512331e-26  -2.9041330220109369e-24  1.1214679627153865e-23  -1.1796123648896446e-24  -9.2274187138134696e-29  1.7797957329742595e-27  -3.7917481835749635e-28  4.0087073445860432e-27  3.9606972227723632e-35  2.6121003657635913e-35  -2.0688749351356660e-35  -6.9718476438833697e-36  -5.1744220916756617e-23  3.2900367233461649e-23  -1.0806716808517652e-22  -6.7995687161511175e-36  -9.2429285027788713e-37  -2.4174047094031526e-36  -3.2097775467033208e-36  2.3878959205505188e-30  -3.5035907861945868e-29  2.1036033573527334e-30  -4.8860085388156650e-31  3.8353463313108152e-25  1.5503640733859741e-23  -3.8914835648738976e-24  -4.0286821230985273e-25  -1.7582891027504173e-28  3.0066338157261694e-32  1.0122326657307709e-32  -2.4204787183495340e-31  5.4383474439284880e-32  3.1885238980522063e-20  4.6005016341453885e-22  2.3088092822725572e-22  8.2660700603842414e-23  -6.6892509638014140e-23  1.0851708599091607e-30  2.0076728292706915e-30  -8.6919612579479383e-31  -4.1475937703738630e-31  -2.4173595946169845e-29  5.6594467834886025e-30  1.6242402295331986e-29  -7.7257242056361087e-27  -1.3145339677287252e-31  -9.1926542807966001e-32  6.1980919187130665e-31  1.3009380470515364e-31  -5.8636677866651135e-34  2.2874184099707223e-34  -6.1622020558234382e-35  -3.1034325815393617e-32  2.6029714971867393e-32  8.1559708772087252e-34  -3.7357493137199686e-33  6.0479938555947158e-23  -1.4318651600197916e-23  1.7916027654343688e-32  8.2670673429056829e-29  -9.5233125479611289e-25  9.4794788831780778e-26  -3.7866767226406586e-25  1.9098865316943210e-24  -1.358