<?xml version="1.0"?>
<VTKFile type="UnstructuredGrid"  version="0.1"  >
<UnstructuredGrid>
<Piece  NumberOfPoints="13262" NumberOfCells="70800">
<Points>
<DataArray  type="Float64"  NumberOfComponents="3"  format="ascii">-1.514379687561633e-08 6.269805921677913e-11 1.161466274664513e-08  -1.403900943433298e-08 -8.361257605832594e-10 1.27928012083979e-08  -1.395047681370344e-08 -1.105998037757747e-10 1.135115535812533e-08  -1.468805334211125e-08 -1.616420816583008e-09 1.219971518220487e-08  -6.062123545229417e-09 -1.156000364250473e-08 2.128318086846892e-08  -4.615338858213756e-09 -1.031436270016927e-08 2.07975733662124e-08  -4.67273707088274e-09 -1.209842893951833e-08 2.134708225893779e-08  -5.56087752667405e-09 -1.129527262492381e-08 2.011531785839695e-08  -1.626837980491326e-09 -3.165633678213378e-09 2.371768167734137e-08  8.04071911133684e-11 -2.340014079800705e-09 2.509551463077914e-08  1.540274327238891e-10 -3.756003629237414e-09 2.385879155994335e-08  -8.65801582687613e-10 -1.872216209951838e-09 2.408317443628931e-08  -1.043630983606267e-08 -3.818376273885987e-09 0  -9.304951242740884e-09 -3.810122029531666e-09 1.451097685922595e-09  -1.096358280907251e-08 -4.049614001965553e-09 1.251287749652818e-09  -9.712255201770272e-09 -2.709222483323147e-09 1.075525114594146e-09  -9.639760150424159e-09 4.317250702782728e-09 2.121102228167857e-08  -8.721084482312567e-09 5.769532598445595e-09 2.095320850945038e-08  -9.601438274704825e-09 5.948913663749164e-09 2.234590453369936e-08  -8.40611514299749e-09 4.597841589535135e-09 2.133141500414647e-08  -9.153555309918474e-09 1.220194754109813e-08 1.836178455581184e-08  -9.427345799463717e-09 1.303563731013734e-08 1.999474697773054e-08  -8.780115019039228e-09 1.142944636223607e-08 1.93722248680049e-08  -8.899919103003317e-09 1.321783778978033e-08 1.878262970851755e-08  -4.664674098890739e-09 -1.444311905027598e-08 1.671012217170551e-08  -6.397930126149891e-09 -1.450616566146435e-08 1.668601236631217e-08  -5.448226787821797e-09 -1.564270149238536e-08 1.612955899881149e-08  -5.376590219740593e-09 -1.565848860652538e-08 1.753619177767692e-08  -5.422553779014985e-09 1.540282639751557e-08 2.106127057204097e-08  -6.522842266830483e-09 1.484449785639296e-08 2.245006205838878e-08  -5.068491250256504e-09 1.481147998966601e-08 2.234653118827852e-08  -5.474293597767389e-09 1.656167190960733e-08 2.17270815072143e-08  -5.712527337204683e-09 6.562621454705866e-09 6.874860540622744e-09  -5.76621138227456e-09 6.244180475363879e-09 5.320246993612218e-09  -6.926546997226204e-09 6.85402332408759e-09 6.313091664294032e-09  -5.433355420227339e-09 7.662317827659871e-09 5.560682983262523e-09  -1.444848604357754e-08 -4.172638232449304e-10 1.431060181281781e-08  -1.551355503991762e-08 -1.852706048917464e-09 1.471700450761311e-08  -1.479020811290954e-08 -1.229424868245979e-09 1.585746592795092e-08  -1.411599414512626e-08 -1.921493535802066e-09 1.481815969656199e-08  -5.676605361697553e-09 -7.194001979316037e-09 2.62279987501438e-08  -8.071102878960418e-09 -7.03554355568155e-09 2.617950823469247e-08  -6.962249809136574e-09 -8.308199389253871e-09 2.618609432114858e-08  -6.186594767081894e-09 -6.886592110251533e-09 2.788550021597866e-08  -6.558889598034905e-10 -1.075051486769204e-08 2.008361087305706e-08  2.842020670523874e-10 -1.183098144736435e-08 1.885761995818682e-08  3.416865699743713e-10 -1.167840682618609e-08 2.021676977898412e-08  -1.392760519331391e-09 -1.163468071985009e-08 1.952499200889529e-08  -1.679988221846075e-08 -1.085191031320505e-08 4.063870655831828e-09  -1.553651651532003e-08 -1.049184192595875e-08 3.499186441773018e-09  -1.615347789218747e-08 -9.797012308431158e-09 5.031602989082834e-09  -1.525557483382724e-08 -1.128344117861653e-08 4.265599784550834e-09  -7.882437996542269e-09 -4.573229151739589e-09 1.344505219309829e-08  -7.13820983294008e-09 -3.14176843229929e-09 1.330986774830342e-08  -8.354754246400568e-09 -4.081159160695218e-09 1.446267141176873e-08  -6.636944422013283e-09 -3.586654906347398e-09 1.432692959575874e-08  -1.2079746134005e-08 1.593987871152071e-08 8.68268353569787e-10  -1.206131817696391e-08 1.415601767585338e-08 1.372692107718854e-09  -1.142716425740748e-08 1.499512340082529e-08 2.279731531695275e-09  -1.096289268506355e-08 1.428502909496759e-08 1.109709052039097e-09  -1.281320788812388e-08 -1.535648734625598e-08 1.752968594250234e-08  -1.154978307933057e-08 -1.399457438423895e-08 1.751151479489922e-08  -1.227059816636459e-08 -1.412302828345803e-08 1.63683442998674e-08  -1.282272008063433e-08 -1.365758159042977e-08 1.772902614045385e-08  -5.66616875210592e-09 1.918057693795102e-08 9.530482009697845e-09  -5.879286233619008e-09 1.759533818332651e-08 8.734875677185059e-09  -4.819016624081666e-09 1.809980383282964e-08 1.01559239448801e-08  -6.404533399024674e-09 1.785054503653961e-08 9.693427654729267e-09  -1.442201260598569e-08 1.385660681381953e-08 1.252727106181039e-08  -1.332378895227546e-08 1.26568041536491e-08 1.215494153589661e-08  -1.403360048177967e-08 1.245860190667853e-08 1.340763446594113e-08  -1.287387340648783e-08 1.377145754076395e-08 1.288920491968137e-08  -9.605095722597825e-10 4.368081340639157e-09 1.651828574007091e-08  -7.834742518385074e-11 4.09124484799277e-09 1.548262993669646e-08  -3.699008536777613e-10 2.865222045220622e-09 1.576257769173129e-08  -1.716857711367252e-09 4.157679521066674e-09 1.537336716383916e-08  -6.100648969067066e-09 -4.128113912581681e-09 3.398679882391212e-09  -5.835701935489135e-09 -3.84188295494251e-09 1.621309365825521e-09  -4.733484562408532e-09 -4.154843846841886e-09 3.006625047889517e-09  -6.227062802945226e-09 -4.962785587810079e-09 2.369367108855195e-09  -9.431030083244628e-09 1.624814962286951e-10 2.170367389791887e-08  -1.032650559895134e-08 1.457317291699717e-09 2.136658766700724e-08  -8.769745325068589e-09 1.452980232543711e-09 2.252092239059136e-08  -8.47326911387421e-09 1.28819447948998e-09 2.090792936633689e-08  -1.979995191054162e-08 -2.821684663501407e-09 9.045798873690416e-09  -1.990328381351924e-08 -1.964508447042907e-09 8.546769658620518e-09  -1.844421774136833e-08 -2.008102744000692e-09 9.73369502261997e-09  -1.878484002633309e-08 -1.989376731838487e-09 7.998471930784272e-09  -1.653905158240357e-08 4.948878969747019e-09 2.31853629337963e-08  -1.515912982317369e-08 4.209556071299365e-09 2.226114117215696e-08  -1.659293111909772e-08 3.244161809482343e-09 2.237746802428249e-08  -1.559251205772799e-08 2.94700328769043e-09 2.331560714600442e-08  2.116673674269673e-09 3.062433840284862e-10 2.207336463111039e-08  2.103771340133056e-09 -1.530374908060084e-09 2.184731008111627e-08  1.767901130432866e-09 -1.613744327800981e-09 2.311680400512934e-08  1.152314127618074e-09 -1.049851786514008e-10 2.256693745076515e-08  -8.333362658965887e-09 -1.478432985590484e-08 1.33571035021066e-08  -9.086965045791184e-09 -1.495372467022739e-08 1.228691615226133e-08  -7.592597273943718e-09 -1.579514341180427e-08 1.301753727382132e-08  -8.093631726727026e-09 -1.498828557214551e-08 1.147268826143901e-08  -6.27723100038773e-09 3.930650037574067e-09 1.283034476313844e-08  -5.362166618051281e-09 4.531811181230027e-09 1.366981262512903e-08  -6.168001721663797e-09 5.487483849843632e-09 1.344325054932164e-08  -6.932393505853417e-09 4.785861973663174e-09 1.440590185690699e-08  -4.895081720330577e-09 1.83022467031543e-08 8.640273496079979e-09  -5.80368270343706e-09 1.773560787619103e-09 6.689972254629274e-09  -6.616261200650608e-09 1.66490833673186e-09 5.257372021240459e-09  -7.060927850106433e-09 2.733142224397549e-09 5.990879255550597e-09  -7.315668374632974e-09 1.098190906615981e-09 6.488937327959303e-09  -8.900072134514695e-09 -1.244266792392247e-08 5.231507333825598e-09  -8.040735001848542e-09 -1.086945397875978e-08 5.446389570897008e-09  -8.219780691465006e-09 -1.128472622844662e-08 4.273906647332389e-09  -8.986672142821331e-09 -1.049819514006126e-08 4.959870265563512e-09  -2.444311032132781e-09 -1.275026551105416e-08 2.019197121395047e-08  -6.673695542187506e-10 -1.255203264031548e-08 1.991270499379466e-08  -1.927197878598315e-09 -1.138770092866515e-08 2.060731619723916e-08  -1.100334567942865e-08 -7.16527421690361e-09 1.749874064175129e-09  -1.01716640218006e-08 -6.125609501184548e-09 2.835137490703772e-09  -1.149011385064498e-08 -5.557998439576787e-09 2.407297006078343e-09  -1.089811392110411e-08 -6.221819496171193e-09 1.099464124519784e-09  -7.877094416109768e-09 -2.394832067729325e-09 2.288403043398269e-08  -8.126221104035911e-09 -4.127306184182056e-09 2.367306590693348e-08  -9.485095788718372e-09 -2.649692568068032e-09 2.384169155490277e-08  -9.453072473060061e-09 -3.517778759602644e-09 2.247965426031907e-08  -8.062626876068114e-09 1.268419303900906e-08 1.931895048200105e-08  -8.356303013794399e-09 1.381356537043279e-08 2.067817475341089e-08  -8.269179449845272e-09 1.423595707827972e-08 1.91391026778705e-08  -9.314381330158136e-09 1.479260509240015e-08 1.970035242820499e-08  -4.923940036821643e-09 -9.935043494650247e-09 8.329390807544059e-09  -5.864504369189475e-09 -9.384319430157545e-09 7.845462366846131e-09  -5.345201253833549e-09 -9.291789056999794e-09 9.196669931326376e-09  -4.445533379358216e-09 -8.220606561634774e-09 8.056488303699203e-09  -8.317467667193161e-09 -9.296164058373823e-09 2.667765821318311e-08  -7.756711191429499e-09 -7.656612818823839e-09 2.809455440228197e-08  -9.819190708513394e-09 -8.243620935345559e-09 2.711513948040225e-08  -7.454645302995518e-09 -1.570192227951098e-08 9.473482349112762e-09  -6.831282290654071e-09 -1.421714134394891e-08 8.566386461762644e-09  -6.319268884632913e-09 -1.589111849333788e-08 8.667224343510251e-09  -7.344463202983555e-09 -1.598569745356776e-08 8.241365903198899e-09  -8.760544350352301e-09 4.258835428327062e-09 1.681865400713342e-08  -8.008550527661546e-09 5.10783076016395e-09 1.610553482812217e-08  -7.278688756610604e-09 3.687780293553402e-09 1.604549164297029e-08  -8.837336517575025e-09 4.163502371182103e-09 1.527248262761101e-08  -9.428529048006919e-09 -1.5733546911
[...]
<PointData  Scalars="f_75"> 
<DataArray  type="Float64"  Name="f_75"  format="ascii">4.5295649661469045e-27  -1.2038690473528969e-29  4.8572749104805233e-27  1.5270482678412125e-28  -1.8121156679683826e-33  8.0696131393415602e-35  -4.8518746389408350e-34  5.3962197602563179e-33  -3.7546450089944730e-35  3.4162977352248031e-37  9.3059687637640853e-36  7.4222428841730907e-36  1.4509257788078672e-04  3.9050645930441074e-21  -3.3607775519884987e-21  4.8364787654530794e-21  -3.5728766622501071e-33  1.0237066795628661e-33  2.2014872944752487e-34  -3.0969132819022681e-34  -4.2997020309193389e-32  1.7707287183191499e-32  -3.9588270514565215e-32  -1.2075135391484166e-31  1.7112157715740155e-30  5.6811552133026552e-31  -1.9655802249987536e-30  -2.3284028728490162e-31  -6.3130826389273230e-34  1.4679033928109724e-34  9.3550113989161021e-35  -1.5729314099923038e-34  -2.6998253346979671e-24  7.3378695056789729e-23  -8.7941139112337451e-24  -2.8116422999528064e-23  7.8422500143277811e-29  -5.3983751317783597e-29  -2.1188546456304619e-30  -5.0498297474593554e-31  -3.1655718959410875e-37  3.3389199631895686e-36  -7.3219882168884773e-37  -4.5932124295557572e-38  3.1245718341467373e-33  -6.9792182953741578e-32  1.3493435891606066e-33  3.9363259538714749e-32  3.9200905646201759e-22  -9.4667144576080273e-22  -1.3970763592576619e-24  -7.8131968526546371e-23  3.4058366568883338e-29  -1.5094489515797223e-29  3.8857648891958744e-29  1.9905378778272704e-30  1.2845111661348123e-04  -4.9069604643295598e-21  -1.8035923150279842e-21  -6.0566798354884362e-21  -4.0316920677309242e-32  -2.7126470018702952e-34  6.0301420609462674e-32  1.8687860230727490e-32  3.1914657715294566e-27  -1.2915968121017121e-25  1.6458364369109083e-26  4.0846369956274107e-27  -1.3159629642142369e-28  5.1569779469390361e-28  -1.3953017132224003e-28  -1.4790666637419606e-28  4.2027932364657883e-31  -1.0612605292893928e-29  3.2893699232786399e-30  2.9292849157964018e-30  -7.3703904250675914e-22  -2.1765029198871213e-21  -1.7853850970120210e-22  1.3463474857256918e-21  1.3268166171468688e-33  7.6686552149015898e-35  2.3909334061795854e-34  -4.2273575253404893e-33  1.6114267777080705e-25  1.3744666988393578e-25  4.5495386187657725e-26  -3.8680955397450142e-25  8.9617157320381915e-35  2.2200121623100166e-34  -2.7034152307934997e-34  -7.8675133109357512e-35  7.2452248648893787e-35  -6.6357269733695711e-34  1.4937137225759776e-34  3.8758308648270253e-35  -1.4977708562290251e-29  -2.2663301341972802e-28  -4.3685379209628586e-28  2.1170623413814682e-27  -7.9249493121296228e-29  2.0084495935815647e-28  3.4165082472874910e-28  -5.8208819589988811e-29  -4.3917540717553120e-26  5.6564560392225322e-25  -2.7734539299378029e-23  2.2142118573441729e-24  1.5693583217382601e-24  -2.4270853684984388e-23  -1.2804880108289221e-23  -3.6309633736844882e-23  -4.5732072277794200e-23  -6.0059976284121910e-33  1.9749418531811161e-32  -6.6605305141938620e-33  -9.0771330274233009e-21  -2.1321002635699586e-21  4.3275740628036241e-23  6.8635925844191111e-21  1.1429435362708268e-34  -1.9575518987392510e-35  3.9829018013241584e-35  1.1245020358100779e-35  5.4213097571721439e-32  -3.5086233436870248e-33  4.6501233628994927e-33  3.0325246214153199e-33  4.2933634317735965e-25  2.4476605330177480e-25  -1.2686773510979284e-25  -3.4053454680439057e-25  2.9573268072468897e-36  -7.6428693799757950e-37  9.8508508952461499e-37  4.1123659655363618e-26  -2.6611074139773948e-26  2.6701550838400839e-25  -2.8848836516935780e-25  1.9847771142431166e-30  1.1655755302444720e-29  -1.7257166251905179e-30  -1.7981401898705548e-29  -2.7368192998907630e-32  7.1432128384223693e-32  -2.4705703611081932e-33  -1.5275940039555932e-32  2.0253496814751493e-29  2.9794955091001553e-30  -3.3476014897028502e-30  7.4473503180675492e-30  4.3102430414830725e-35  -4.7761065195482550e-37  -1.1845042146941225e-35  -1.7710674386126915e-36  6.9604764488773447e-35  3.5373853894978775e-35  -8.0113977610886864e-34  1.2082175751819453e-26  2.5461318106948359e-26  1.0181589958264253e-26  3.5552430947314512e-25  -3.0918550623167283e-28  1.3210670873195730e-27  -8.2698580192321474e-28  7.8141540323096809e-29  -5.0334504011264436e-38  2.9766890091458072e-37  -1.4426696816221600e-37  1.4559733559400503e-36  -4.3194152870729891e-36  -7.0822031563872953e-37  -1.0393237764903912e-35  -4.3090496833247317e-29  -6.2167248775364303e-29  1.5220867887671762e-29  -2.3329094874740443e-28  -5.1040043889838019e-31  5.6016497709594489e-27  1.0550067313893901e-26  3.2217996896781812e-28  -1.1946230238451401e-26  3.1174460958021937e-33  -4.1934932045889112e-34  4.0558119473478215e-33  -1.0033145379263826e-33  -7.9921831147408010e-30  6.2860940427259676e-29  -7.5527669610443819e-29  -3.7987976178012821e-28  2.2911634157437267e-25  4.1417854014220923e-26  5.2442656680774913e-26  -1.7992651249570908e-25  1.8773892264617497e-33  -2.7660072637647211e-33  -2.8703042163890569e-33  -1.8293480189647861e-33  1.0499824426434022e-34  3.1395986007487864e-34  -8.2275535283836316e-34  1.1543986853971683e-32  4.5060287413245151e-32  -4.3275773942125287e-33  -1.0448007565382894e-32  -9.5348990890853746e-22  5.7907679611013040e-21  -3.3440044415338323e-20  3.1149241498635470e-21  -7.3958358947707982e-21  1.6956286007407307e-20  -1.3828920514277816e-21  -4.1229565107037744e-22  2.6231515042918610e-30  -5.0358751790032218e-30  -1.2949242222373816e-30  -3.1020406045481773e-30  1.7370163193491621e-22  -1.0444200336581115e-23  8.1917637696534180e-22  5.5750710007590669e-23  2.9279304689280684e-23  2.8853646352243816e-23  -4.2230710860034449e-25  -7.1875147672238237e-23  -2.5020534218259777e-36  1.3416015399427794e-35  -7.1122794334073443e-36  8.9227765688250062e-36  -1.1280509565389152e-23  1.5278229802363054e-24  -1.1265162127551289e-23  4.8770086663110387e-23  -6.7150858629692343e-22  -1.0155679859165741e-21  1.3587417525716309e-21  -1.9878620904735695e-22  2.7682855517072051e-24  -1.1177419727386308e-23  1.1968657048639035e-24  2.0235898238824104e-24  9.8133965510979532e-30  -1.5549965964522457e-30  -3.6082649158440305e-30  4.8367005715711288e-30  1.7729114809542628e-24  -9.4299886184346275e-24  -5.2900261232877139e-24  -3.9997441348086938e-24  -1.7492686086778714e-28  1.0309048841408752e-27  -1.0207446555383523e-26  1.0077178325627410e-26  4.9712173591122752e-31  3.0386979881768298e-31  -7.7509957103202342e-32  -4.6959947727802788e-31  -5.2179567170130902e-26  -9.8515162082555427e-25  1.1990797614685665e-25  4.4346663704545545e-25  -7.0979811273803623e-31  3.7944940547620161e-29  -9.6666251805756477e-30  -3.0838598807924204e-30  -2.7231815751015239e-21  -2.4637953293604900e-20  4.9165926685334734e-27  2.3304276649626617e-33  1.2644249306999391e-31  5.5884412140414207e-32  -2.8981243727888858e-31  -1.3349693062478332e-33  -2.2993008629286657e-31  1.1738138403272687e-30  4.9445802308184016e-31  1.1564427619667259e-31  6.2987840445310653e-24  -2.1309543916743805e-24  1.4177975126746027e-24  4.1411716409113380e-24  -1.6542605566585089e-29  -1.7191450941083408e-31  -1.3459230520280551e-21  1.2383532353186420e-21  -8.6851036863673325e-21  5.0951518273664620e-21  -8.2974102079334701e-30  3.6100157605928881e-29  2.9226304091537335e-29  -7.1724940225826583e-30  1.0677192041091466e-37  -4.0870123235174102e-37  -1.3345431091371557e-37  -8.2168761727249049e-38  -4.9182043292049290e-30  1.0108304193953917e-30  -9.2219601625380040e-31  -2.5808817753470921e-31  3.2606820302522269e-26  -1.4443924572849977e-25  1.4446367577976487e-26  1.5101994549694266e-27  -3.8829617270205576e-31  3.3592652703618462e-31  -1.8896919506655876e-30  5.4923819740206129e-30  -6.2221830224193177e-30  9.0508775239122801e-24  3.4972426014867292e-36  1.5347383058642547e-34  -4.1574239885685824e-35  -3.6693136133151088e-35  4.2597673204430139e-28  -8.4993810381782720e-33  -5.0859867109984727e-32  6.9554455314089953e-34  8.9799023994406351e-32  2.6524959547544943e-26  -1.9324873601644038e-33  1.2324935045245778e-31  3.9283117295590913e-33  -1.5936429643537848e-31  -6.5101060295256100e-32  1.2746391708536535e-31  7.6932068218657812e-34  2.4243749530877848e-33  9.2507993629563675e-32  -1.5861870593196217e-31  -1.3774463209768844e-31  -5.7446228267902809e-31  2.2046777309233781e-31  -1.2392227824218635e-31  8.7405796248142918e-31  -9.3950681074214109e-30  1.2110095538872586e-28  -2.3979351557491519e-29  3.2683268389357289e-29  -2.0322198463603763e-25  -2.2812869399439291e-25  -2.5907596576996774e-25  2.3544853507091769e-24  -2.5125250176699481e-36  -2.4670050517149944e-30  -5.8373849221855637e-30  3.1509404264613044e-30  -1.4655903082579368e-29  1.1283342286335958e-26  2.1054449158993566e-27  -4.9817783272194508e-27  2.0731501685258478e-27  -3.8114366690804552e-34  4.3282266049682500e-34  4.9163892186645794e-34  -5.3751648317345622e-34  1.9061761568026504e-04  2.1448822072855920e-20  1.1543267559354106e-20  -1.1114630718856912e-20  6.5664425591054020e-22  -9.4562835541578171e-23  -2.7277458880562582e-22  1.6646519622043726e-21  -5.1424015537267767e-25  2.6202575692151585e-26  1.8636180786695774e-24  -1.2783665479641970e-24  2.7705174729469452e-27  8.1798775112958469e-28  7.4868290840863681e-27  -9.2851990081507974e-28  8.9574231663084404e-25  -6.9999364031969506e-24  4.6803602815885365e-24  -5.8545375664695292e-25  1.2777412997529215e-04  -2.4612621933407216e-21  -2.9217530967239436e-21  6.8352266743148470e-21  -5.3890382849983759e-31  3.3011628350883140e-31  1.8952708675632523e-22  -1.3280021244991718e-21  9.2790949478211391e-23  -3.6555332480045298e-22  1.6885394753012673e-31  5.2801346002201789e-32  -1.1455418774937950e-30  3.7372594971141870e-32  5.3830740071143958e-33  5.2452227752316121e-26  2.7186095081589947e-28  -1.3002964360822297e-28  1.6473805539455784e-27  -4.4103759641173580e-28  -1.3455310848446625e-26  2.5083081638497028e-27  3.1695282299255947e-27  -2.3067229640826534e-26  -1.3808975026336175e-29  1.7933427815341745e-29  3.7235664513246444e-29  -1.0237672564823773e-29  2.4616883855460194e-23  -1.1306546924285526e-23  1.7183991934109010e-23  -6.6047606990897020e-24  -1.2950254541125544e-34  1.1355398384330658e-21  -5.8751438918043853e-22  2.5630348122509023e-21  -1.7633386401045573e-24  -1.3278956619192587e-26  1.5407687107182301e-26  1.0995379833853440e-26  2.2724297028973536e-26  -2.2129859085987293e-32  1.2408970710604069e-32  6.9025834290652519e-33  -5.3157958592214594e-32  -1.2722181078355399e-25  1.7381984856476736e-26  -2.2398593207119575e-25  3.8362707004197332e-26  -2.3874344242137741e-25  4.6662916885362845e-29  5.0747518403744933e-29  -3.6552805218853980e-28  6.8000864665799941e-29  1.5018309866145393e-31  -1.4839273789498200e-32  -1.1976599716259428e-31  9.1580384467978440e-32  -3.7657386149993844e-28  5.1572807328517497e-29  4.6197467889946335e-29  -7.7360462231727622e-26  -1.1624847175871982e-24  -1.3559909910934326e-24  2.4767126711253260e-25  -1.5744564253111427e-21  5.2345620519706350e-25  -2.5093133206077694e-24  3.5854075057092323e-24  2.6643598286730705e-24  2.9465750349602392e-26  9.7554636111226320e-30  -5.1081068040922497e-30  -4.6213736610588708e-30  2.0915028536460098e-29  -5.9194953077660593e-25  9.7408382728607561e-36  1.9089035097422429e-36  -6.4707735691578576e-37  -5.9783603629696596e-37  -1.1867874536203352e-30  -1.0096084681440425e-29  -1.5024684411412848e-30  2.4457325740565041e-29  -1.0804410982617012e-37  1.4903324989163976e-32  -2.6083813339764891e-28  2.1572680860008642e-28  -1.2468792718390704e-27  7.6263293068924375e-29  -1.4174672814500224e-24  2.0819507691510872e-23  -1.1357552174000448e-25  -2.6684996634279824e-24  -2.4973808817437631e-30  3.9398548879889955e-31  2.4107549347595384e-30  -1.3231697721039813e-21  1.0633331874824175e-30  -3.7886793223952210e-31  1.6897643792084061e-31  -8.9440434525992367e-32  1.2465944629673183e-29  7.4137772172007651e-30  2.4512369709996704e-30  -5.1821667165626524e-29  -2.3721799399908654e-30  -8.1252710905648734e-30  9.4035354709880510e-31  -1.0944052443022678e-30  3.1991355491957297e-30  4.8523860799788397e-31  -2.6950129552658172e-32  -9.2456067592956756e-31  3.0951614853160040e-30  -2.3273315093729338e-31  -2.0339259162085620e-31  4.6784031316701241e-21  3.5497042000082122e-21  -8.7546480250996322e-21  5.8067176608945002e-22  1.5017237105321061e-32  -2.5018907149479728e-32  -1.1008725947121857e-31  2.4557676482562296e-32  4.1126122237141674e-34  3.6249643281571960e-36  7.4188002103801453e-37  -1.0028839996246101e-35  -1.0924190870932490e-36  2.6117242123264812e-29  -1.2628902475291786e-30  -2.5351871150500509e-29  -3.2998485552307942e-31  2.0032454995642171e-25  -2.2282415538143079e-26  1.0364108216925481e-26  -3.1591995609703446e-26  -7.8087698440795990e-28  -4.0832293156041211e-37  -2.4994829608465079e-34  3.3270211526236245e-35  -2.7742238499511068e-34  1.1416081541519254e-34  -2.3114111131564678e-22  -6.8039803552399886e-21  -7.4473735009818209e-21  1.5647669504302019e-04  -2.5387603699744181e-27  1.6333422470514276e-26  2.0430913488201782e-26  1.7777802201649379e-27  9.0920987311254332e-30  4.2201815343092932e-27  -4.3067927995283172e-28  4.8165123116465209e-27  -1.2472676167270688e-27  -2.3005667380010468e-30  1.8662274065723846e-29  1.9435351325143472e-30  -1.0655505690883503e-29  -2.6502124380882295e-28  -4.6809016095539878e-27  2.8531670114092007e-28  -3.5221311252809189e-27  1.4200930534004374e-04  -3.5634669884307893e-21  -3.1666963804215882e-20  -6.7154380431705650e-22  -1.3387955589008721e-36  -1.1521493202804998e-35  -2.7888500263271523e-36  3.3858763535706246e-36  3.7627612585107574e-36  1.0034154299443294e-34  -3.3681029013091812e-35  1.0990396283953339e-35  5.3466386096844185e-32  -4.8687425729935522e-32  -1.1630836102470861e-32  6.4050113856277953e-33  1.4000183689421818e-24  1.4992599128816648e-23  -4.5540000151868477e-24  3.4117695359764513e-24  3.7092065799356624e-31  -6.1156008862841329e-30  2.4327164032385749e-29  2.9599060435607923e-29  1.0451497782036614e-21  -9.1616877807348763e-23  -7.4425602633708806e-23  -2.5174953985987627e-23  -7.2637504144281886e-30  -7.8482695747150751e-30  -5.2121303186084590e-28  -2.1534949280821488e-28  1.8442263754856212e-28  6.4506066134810128e-28  -1.2433385358765403e-27  7.7650046606249893e-27  -1.7598959432315984e-26  -3.8468846872004976e-32  1.8722865494237016e-23  4.8239044953260091e-24  -1.7105847690970883e-23  8.8968370309811751e-24  -1.3885424640288601e-37  -6.5064828073709935e-38  1.3596189751269578e-37  3.4231349399303937e-37  4.1953652116536045e-33  1.4610010740258022e-32  -2.1344077794513804e-32  5.4073654282125681e-32  -4.2323853962753352e-32  6.8691432752622574e-32  7.1294420412067261e-32  1.7167738412149257e-23  -2.6931808333554287e-23  7.1104243668884408e-23  4.6144417172191695e-23  8.8040015270146554e-24  1.9271817742159038e-24  1.7935283109033408e-23  2.9555240742597382e-31  -2.6972807536497462e-29  9.7040381606610973e-30  9.6353717606124982e-29  7.0243940460454322e-34  5.9832112534146642e-25  -8.3947228797812423e-27  -1.6043870164143847e-36  -4.8078196123979689e-37  6.8272892869956575e-37  -1.2381601089188304e-36  1.4184005184981311e-34  -1.5124476487863314e-34  -4.0946115158784457e-34  2.6564046401475818e-34  1.6521466661023482e-29  -4.3065863503345248e-29  -3.7288958045776982e-29  6.3744525422390007e-22  8.0993642146467886e-22  -3.4414185294600462e-35  -1.7952727618969592e-35  -2.7395315825252223e-35  -1.3971952763159747e-35  5.6987800892753041e-33  1.3356210371654605e-21  2.6866331173283177e-31  8.5058917095754448e-32  -4.5949062397333469e-31  -1.5959838989208716e-31  -6.2587245064905546e-28  -1.2797398387101193e-27  6.5773446354721634e-29  -2.1148105699346037e-29  1.3817480660750772e-04  -1.4126162157174786e-20  -7.6185710204205357e-21  -2.5043896139240592e-20  -1.1989253186567583e-25  -2.2639241483524843e-38  5.1526480773075081e-38  1.3205456020413982e-36  -2.2807990987373735e-36  1.2768743150276494e-37  2.4759464279613580e-21  -1.2594753324020092e-20  1.7966717382358582e-20  5.1161805570339953e-20  3.8099984967291737e-31  1.5794445623552488e-30  3.3604905082664828e-30  -1.0588689019834861e-30  -2.1068070985418372e-28  2.1737509678981247e-27  1.9780314969680063e-29  -3.1751813920675215e-28  1.4157678789100452e-26  -1.0433510740116389e-27  -3.1000866296750459e-29  3.5063696218520908e-23  -6.8372891810009673e-24  -3.1203232657975334e-24  -4.6755908533511616e-24  1.6376341530021089e-28  -2.7201399206698385e-28  3.2854830121188753e-29  -1.6441095388280040e-29  5.1480758429130870e-39  2.5657163597649338e-37  -2.8513278841796619e-37  -9.1152983948546762e-38  2.9760462897116564e-35  -9.3297513796495104e-22  5.2246546133606412e-23  3.1642717954529740e-24  -2.5626808081365174e-21  -1.0181896048712318e-29  1.1663795887015602e-30  6.6155126099193787e-30  7.4086436112078075e-33  2.8323187375989299e-32  -3.2172544443010495e-32  6.9965998051431650e-33  9.1647949539954446e-30  -3.2149224017914571e-29  6.8144111979576724e-30  3.7775460967856937e-30  6.0939483390816239e-35  -6.1966014943760065e-22  -1.7587533624016364e-37  -1.7387673273853631e-35  -2.2693023001776050e-22  -5.8089995777220639e-25  5.5313696301607386e-32  -1.0508859134595980e-30  -8.1915787662680971e-31  9.9936802464809119e-31  1.2035865996495628e-31  5.3494257516593606e-21  -2.3566726259486472e-28  -1.0862081428952194e-28  5.4801843201360579e-28  -5.3271693225725510e-29  -8.8311959810118854e-24  2.1666519801414799e-26  5.1744404712229690e-33  5.4157191762758167e-34  -8.7646858884846838e-34  1.0003380942101669e-32  -2.1929371800530531e-22  -2.7424002706236877e-24  2.0759251128237874e-23  -3.3924503940941669e-23  1.2398578812698126e-21  -8.0225210841038746e-22  1.5189452621874199e-21  -2.5786667676342429e-21  1.1570899502062164e-04  -3.3857138959638398e-21  1.4577313746648319e-04  1.1958026275621145e-31  2.4518717015556041e-32  -7.7822202008619855e-33  -1.7934309392871234e-33  -8.6987496316656153e-23  6.2962380742374366e-23  1.1552913977848012e-22  2.1503922760065828e-22  -3.2242431141438011e-30  1.1689174829760125e-29  -9.5658087497724976e-31  -6.9428883615232126e-31  5.6291042342014814e-23  7.7964796973235045e-23  6.2167487520090517e-23  4.2457022072835832e-23  -2.2061533172310236e-20  3.9690107641952775e-34  2.6717224643179842e-34  6.5789313889657141e-34  -7.6068779935835336e-33  -1.5269423131591858e-28  3.8526916683386117e-28  -1.3266130185961367e-27  -2.8748310503206289e-29  4.2374691990968431e-23  -3.4577813864300150e-32  1.9406547564345630e-31  -7.2295022485070296e-33  -2.3177253062386305e-32  7.6002645882424352e-38  1.1420394707938953e-39  1.7219430500097878e-38  -9.1807595808920659e-23  -4.8406651253834572e-22  -5.9159282848031638e-32  -9.3533228125320312e-32  -1.7452318244900291e-33  1.5141490042166147e-31  1.9905924760370598e-23  -7.7992671670165926e-23  -5.3583403527041967e-30  -2.4866101939655875e-22  2.3379191148011878e-21  -1.3278533401194383e-22  2.6518226540680370e-22  1.8757485071603105e-35  -2.0385658587259494e-35  5.3598648166667396e-37  -1.5273214773675619e-35  1.0509689342798385e-26  -1.9307328936132271e-26  1.9562681923045303e-25  -3.4880404390098951e-34  -3.4678623093651543e-32  1.6643888394362348e-33  -2.0912236915944400e-32  -7.8772870846742710e-33  -9.6116217512209715e-35  1.9260603154291240e-33  -6.7257469722743403e-22  -1.1232166394520536e-35  8.0295724890114798e-36  -3.5952553665296646e-35  1.3935998499269344e-33  6.8286819663477210e-33  -2.3047216291612046e-33  7.0127006121846232e-33  -3.8699194702502170e-29  -1.8928230770991591e-29  4.8996531678943379e-29  -2.2503429448697680e-30  -9.4140518308006955e-37  3.5479654150033341e-37  2.6040998009145975e-37  -4.8668802298708650e-37  1.0093375287048576e-24  3.0834262477557052e-25  7.0786041072760953e-30  4.3974797203696521e-22  4.7679769974238010e-22  -4.4545864266013583e-22  -8.6717884529066446e-30  6.2180975209131805e-28  -1.2585366099795604e-28  -1.2150490278696447e-28  -5.7544430343701730e-29  1.5001823175427565e-29  -1.3120306478671713e-27  -8.0678230074989082e-21  6.0465720516936997e-36  -2.3809294770728039e-21  1.4356775556364148e-3